320
Lattice="41.214107553959614 0.0 0.0 0.0 30.0 0.0 0.0 0.0 69.06099216" Properties=species:S:1:pos:R:3:move_mask:L:1:momenta:R:3:energies:R:1:forces:R:3 energy=-2454.052963227787 free_energy=-2454.052963227787 stress="0.0027498750309647817 0.0 -4.258155980008076e-18 0.0 0.0 0.0 -4.258155980008076e-18 0.0 -9.405873615557962e-05" pbc="T T T"
C       15.00000000      15.00000000       0.00000000  F       0.00000000       0.00000000       0.00000000      -6.15494457       2.94629247       0.00000000      -5.10372143
C       17.49202390      15.00000000       0.00000000  F       0.00000000       0.00000000       0.00000000      -7.97770185       0.00000000       0.00000000      -0.00000000
C       19.98404780      15.00000000       0.00000000  F       0.00000000       0.00000000       0.00000000      -7.97770185       0.00000000       0.00000000      -0.00000000
C       22.47607170      15.00000000       0.00000000  F       0.00000000       0.00000000       0.00000000      -7.97770185       0.00000000       0.00000000      -0.00000000
C       24.96809560      15.00000000       0.00000000  F       0.00000000       0.00000000       0.00000000      -8.25652741       2.94680618       0.00000000      -2.63708103
C       16.24601195      15.00000000       0.71938534  F       0.00000000       0.00000000       0.00000000      -8.25652741      -2.94680618       0.00000000       2.63708103
C       18.73803585      15.00000000       0.71938534  F       0.00000000       0.00000000       0.00000000      -7.97770185       0.00000000       0.00000000      -0.00000000
C       21.23005975      15.00000000       0.71938534  F       0.00000000       0.00000000       0.00000000      -7.97770185       0.00000000       0.00000000      -0.00000000
C       23.72208365      15.00000000       0.71938534  F       0.00000000       0.00000000       0.00000000      -7.97770185       0.00000000       0.00000000      -0.00000000
C       26.21410755      15.00000000       0.71938534  F       0.00000000       0.00000000       0.00000000      -6.15494457      -2.94629247       0.00000000       5.10372143
C       16.24601195      15.00000000       2.15815600  F       0.00000000       0.00000000       0.00000000      -8.25652741      -2.94680618       0.00000000      -2.63708103
C       18.73803585      15.00000000       2.15815600  F       0.00000000       0.00000000       0.00000000      -7.97770185       0.00000000       0.00000000       0.00000000
C       21.23005975      15.00000000       2.15815600  F       0.00000000       0.00000000       0.00000000      -7.97770185       0.00000000       0.00000000       0.00000000
C       23.72208365      15.00000000       2.15815600  F       0.00000000       0.00000000       0.00000000      -7.97770185       0.00000000       0.00000000       0.00000000
C       26.21410755      15.00000000       2.15815600  F       0.00000000       0.00000000       0.00000000      -6.15494457      -2.94629247       0.00000000      -5.10372143
C       15.00000000      15.00000000       2.87754134  F       0.00000000       0.00000000       0.00000000      -6.15494457       2.94629247       0.00000000       5.10372143
C       17.49202390      15.00000000       2.87754134  F       0.00000000       0.00000000       0.00000000      -7.97770185       0.00000000       0.00000000      -0.00000000
C       19.98404780      15.00000000       2.87754134  F       0.00000000       0.00000000       0.00000000      -7.97770185       0.00000000       0.00000000      -0.00000000
C       22.47607170      15.00000000       2.87754134  F       0.00000000       0.00000000       0.00000000      -7.97770185       0.00000000       0.00000000      -0.00000000
C       24.96809560      15.00000000       2.87754134  F       0.00000000       0.00000000       0.00000000      -8.25652741       2.94680618       0.00000000       2.63708103
C       15.00000000      15.00000000       4.31631201  F       0.00000000       0.00000000       0.00000000      -6.15494457       2.94629247       0.00000000      -5.10372143
C       17.49202390      15.00000000       4.31631201  F       0.00000000       0.00000000       0.00000000      -7.97770185       0.00000000       0.00000000       0.00000000
C       19.98404780      15.00000000       4.31631201  F       0.00000000       0.00000000       0.00000000      -7.97770185       0.00000000       0.00000000       0.00000000
C       22.47607170      15.00000000       4.31631201  F       0.00000000       0.00000000       0.00000000      -7.97770185       0.00000000       0.00000000       0.00000000
C       24.96809560      15.00000000       4.31631201  F       0.00000000       0.00000000       0.00000000      -8.25652741       2.94680618       0.00000000      -2.63708103
C       16.24601195      15.00000000       5.03569734  F       0.00000000       0.00000000       0.00000000      -8.25652741      -2.94680618       0.00000000       2.63708103
C       18.73803585      15.00000000       5.03569734  F       0.00000000       0.00000000       0.00000000      -7.97770185       0.00000000       0.00000000      -0.00000000
C       21.23005975      15.00000000       5.03569734  F       0.00000000       0.00000000       0.00000000      -7.97770185       0.00000000       0.00000000      -0.00000000
C       23.72208365      15.00000000       5.03569734  F       0.00000000       0.00000000       0.00000000      -7.97770185       0.00000000       0.00000000      -0.00000000
C       26.21410755      15.00000000       5.03569734  F       0.00000000       0.00000000       0.00000000      -6.15494457      -2.94629247       0.00000000       5.10372143
C       16.24601195      15.00000000       6.47446801  F       0.00000000       0.00000000       0.00000000      -8.25652741      -2.94680618       0.00000000      -2.63708103
C       18.73803585      15.00000000       6.47446801  F       0.00000000       0.00000000       0.00000000      -7.97770185       0.00000000       0.00000000       0.00000000
C       21.23005975      15.00000000       6.47446801  F       0.00000000       0.00000000       0.00000000      -7.97770185       0.00000000       0.00000000       0.00000000
C       23.72208365      15.00000000       6.47446801  F       0.00000000       0.00000000       0.00000000      -7.97770185       0.00000000       0.00000000       0.00000000
C       26.21410755      15.00000000       6.47446801  F       0.00000000       0.00000000       0.00000000      -6.15494457      -2.94629247       0.00000000      -5.10372143
C       15.00000000      15.00000000       7.19385335  F       0.00000000       0.00000000       0.00000000      -6.15494457       2.94629247       0.00000000       5.10372143
C       17.49202390      15.00000000       7.19385335  F       0.00000000       0.00000000       0.00000000      -7.97770185       0.00000000       0.00000000       0.00000000
C       19.98404780      15.00000000       7.19385335  F       0.00000000       0.00000000       0.00000000      -7.97770185       0.00000000       0.00000000       0.00000000
C       22.47607170      15.00000000       7.19385335  F       0.00000000       0.00000000       0.00000000      -7.97770185       0.00000000       0.00000000       0.00000000
C       24.96809560      15.00000000       7.19385335  F       0.00000000       0.00000000       0.00000000      -8.25652741       2.94680618       0.00000000       2.63708103
C       15.00000000      15.00000000       8.63262402  F       0.00000000       0.00000000       0.00000000      -6.15494457       2.94629247       0.00000000      -5.10372143
C       17.49202390      15.00000000       8.63262402  T      -0.29619270      -0.07682108       0.16206505      -7.97770185       0.00000000       0.00000000      -0.00000000
C       19.98404780      15.00000000       8.63262402  T      -0.90664577       0.06530423       0.23261769      -7.97770185       0.00000000       0.00000000      -0.00000000
C       22.47607170      15.00000000       8.63262402  T      -0.48235879      -0.78288391      -0.11635353      -7.97770185       0.00000000       0.00000000      -0.00000000
C       24.96809560      15.00000000       8.63262402  T      -0.49828657      -0.91795960      -0.31849833      -8.25652741       2.94680618       0.00000000      -2.63708103
C       16.24601195      15.00000000       9.35200935  T      -0.51734578       0.08763294       0.61825531      -8.25652741      -2.94680618       0.00000000       2.63708103
C       18.73803585      15.00000000       9.35200935  T      -0.00307671      -0.28046435      -0.10028048      -7.97770185       0.00000000       0.00000000       0.00000000
C       21.23005975      15.00000000       9.35200935  T       0.06001584       0.73082122       1.20230014      -7.97770185       0.00000000       0.00000000       0.00000000
C       23.72208365      15.00000000       9.35200935  T       0.09227812      -0.00984487       0.42719662      -7.97770185       0.00000000       0.00000000       0.00000000
C       26.21410755      15.00000000       9.35200935  F       0.00000000       0.00000000       0.00000000      -6.15494457      -2.94629247       0.00000000       5.10372143
C       16.24601195      15.00000000      10.79078003  T      -0.28615194      -0.00966413      -0.12448876      -8.25652741      -2.94680618       0.00000000      -2.63708103
C       18.73803585      15.00000000      10.79078003  T       0.63039367      -0.19654679       0.03559398      -7.97770185       0.00000000       0.00000000      -0.00000000
C       21.23005975      15.00000000      10.79078003  T      -0.76137465      -0.38038351       0.50967162      -7.97770185       0.00000000       0.00000000      -0.00000000
C       23.72208365      15.00000000      10.79078003  T       1.41570468       0.27181679       0.27601752      -7.97770185       0.00000000       0.00000000      -0.00000000
C       26.21410755      15.00000000      10.79078003  F       0.00000000       0.00000000       0.00000000      -6.15494457      -2.94629247       0.00000000      -5.10372143
C       15.00000000      15.00000000      11.51016536  F       0.00000000       0.00000000       0.00000000      -6.15494457       2.94629247       0.00000000       5.10372143
C       17.49202390      15.00000000      11.51016536  T       0.09423535      -0.48291178      -0.53769237      -7.97770185       0.00000000       0.00000000      -0.00000000
C       19.98404780      15.00000000      11.51016536  T       0.37267029       0.27516941      -0.45528653      -7.97770185       0.00000000       0.00000000      -0.00000000
C       22.47607170      15.00000000      11.51016536  T      -0.59256739       0.06329677       0.73213721      -7.97770185       0.00000000       0.00000000      -0.00000000
C       24.96809560      15.00000000      11.51016536  T       0.85771195      -0.15622237       0.06479311      -8.25652741       2.94680618       0.00000000       2.63708103
C       15.00000000      15.00000000      12.94893603  F       0.00000000       0.00000000       0.00000000      -6.15494457       2.94629247       0.00000000      -5.10372143
C       17.49202390      15.00000000      12.94893603  T       0.42760791      -0.37133636      -0.10750802      -7.97770185       0.00000000       0.00000000       0.00000000
C       19.98404780      15.00000000      12.94893603  T       0.48042869       0.24842839       0.42483488      -7.97770185       0.00000000       0.00000000       0.00000000
C       22.47607170      15.00000000      12.94893603  T       0.52436413       1.05528716       0.07820739      -7.97770185       0.00000000       0.00000000       0.00000000
C       24.96809560      15.00000000      12.94893603  T      -0.46150220       0.11683358       0.12373083      -8.25652741       2.94680618       0.00000000      -2.63708103
C       16.24601195      15.00000000      13.66832136  T      -0.51758799       0.27243355      -0.67129406      -8.25652741      -2.94680618       0.00000000       2.63708103
C       18.73803585      15.00000000      13.66832136  T       0.82173148       0.09963530       0.59272642      -7.97770185       0.00000000       0.00000000       0.00000000
C       21.23005975      15.00000000      13.66832136  T      -0.12575216       0.13038334      -2.12820997      -7.97770185       0.00000000       0.00000000       0.00000000
C       23.72208365      15.00000000      13.66832136  T       0.46092254      -0.03854623       0.29432340      -7.97770185       0.00000000       0.00000000       0.00000000
C       26.21410755      15.00000000      13.66832136  F       0.00000000       0.00000000       0.00000000      -6.15494457      -2.94629247       0.00000000       5.10372143
C       16.24601195      15.00000000      15.10709203  T       0.15654337       0.17572614      -0.32317948      -8.25652741      -2.94680618       0.00000000      -2.63708103
C       18.73803585      15.00000000      15.10709203  T      -0.05227858      -1.03637907      -0.14584922      -7.97770185       0.00000000       0.00000000      -0.00000000
C       21.23005975      15.00000000      15.10709203  T       0.66651199      -0.41612354      -0.66726978      -7.97770185       0.00000000       0.00000000      -0.00000000
C       23.72208365      15.00000000      15.10709203  T       0.07680036      -1.12528102       0.02965850      -7.97770185       0.00000000       0.00000000      -0.00000000
C       26.21410755      15.00000000      15.10709203  F       0.00000000       0.00000000       0.00000000      -6.15494457      -2.94629247       0.00000000      -5.10372143
C       15.00000000      15.00000000      15.82647737  F       0.00000000       0.00000000       0.00000000      -6.15494457       2.94629247       0.00000000       5.10372143
C       17.49202390      15.00000000      15.82647737  T      -0.50986518       0.18612734      -0.02385666      -7.97770185       0.00000000       0.00000000       0.00000000
C       19.98404780      15.00000000      15.82647737  T      -0.10446482      -0.61767665      -0.05364239      -7.97770185       0.00000000       0.00000000       0.00000000
C       22.47607170      15.00000000      15.82647737  T      -0.79543390      -0.35538435       0.42076316      -7.97770185       0.00000000       0.00000000       0.00000000
C       24.96809560      15.00000000      15.82647737  T      -0.37738817      -0.93176349      -0.34413653      -8.25652741       2.94680618       0.00000000       2.63708103
C       15.00000000      15.00000000      17.26524804  F       0.00000000       0.00000000       0.00000000      -6.15494457       2.94629247       0.00000000      -5.10372143
C       17.49202390      15.00000000      17.26524804  T      -0.09568673       0.45235937       0.03434105      -7.97770185       0.00000000       0.00000000      -0.00000000
C       19.98404780      15.00000000      17.26524804  T      -0.08255965       1.09886867      -0.78103169      -7.97770185       0.00000000       0.00000000      -0.00000000
C       22.47607170      15.00000000      17.26524804  T       0.25012083      -0.12339649       0.08440440      -7.97770185       0.00000000       0.00000000      -0.00000000
C       24.96809560      15.00000000      17.26524804  T      -0.55478999       0.35479833      -0.20144023      -8.25652741       2.94680618       0.00000000      -2.63708103
C       16.24601195      15.00000000      17.98463337  T       0.24484442      -0.09227936      -0.04531190      -8.25652741      -2.94680618       0.00000000       2.63708103
C       18.73803585      15.00000000      17.98463337  T       0.90896822       0.01152241      -0.23434475      -7.97770185       0.00000000       0.00000000       0.00000000
C       21.23005975      15.00000000      17.98463337  T      -0.14479496      -0.62447694       0.03768755      -7.97770185       0.00000000       0.00000000       0.00000000
C       23.72208365      15.00000000      17.98463337  T      -0.14948156       0.58741666       0.68067330      -7.97770185       0.00000000       0.00000000       0.00000000
C       26.21410755      15.00000000      17.98463337  F       0.00000000       0.00000000       0.00000000      -6.15494457      -2.94629247       0.00000000       5.10372143
C       16.24601195      15.00000000      19.42340404  T       0.44829534       0.75745762      -0.59808917      -8.25652741      -2.94680618       0.00000000      -2.63708103
C       18.73803585      15.00000000      19.42340404  T      -0.71640710      -0.43056723      -0.21852604      -7.97770185       0.00000000       0.00000000       0.00000000
C       21.23005975      15.00000000      19.42340404  T      -1.14194506      -0.84647196      -0.79949767      -7.97770185       0.00000000       0.00000000       0.00000000
C       23.72208365      15.00000000      19.42340404  T       1.00924404       0.37441276       0.22587766      -7.97770185       0.00000000       0.00000000       0.00000000
C       26.21410755      15.00000000      19.42340404  F       0.00000000       0.00000000       0.00000000      -6.15494457      -2.94629247       0.00000000      -5.10372143
C       15.00000000      15.00000000      20.14278938  F       0.00000000       0.00000000       0.00000000      -6.15494457       2.94629247       0.00000000       5.10372143
C       17.49202390      15.00000000      20.14278938  T      -0.34287323      -0.53488295      -1.29198219      -7.97770185       0.00000000       0.00000000      -0.00000000
C       19.98404780      15.00000000      20.14278938  T       0.03024847       0.19311864      -0.32528489      -7.97770185       0.00000000       0.00000000      -0.00000000
C       22.47607170      15.00000000      20.14278938  T      -0.16296049       0.26918017       0.14183572      -7.97770185       0.00000000       0.00000000      -0.00000000
C       24.96809560      15.00000000      20.14278938  T       0.65978366      -0.16390751       0.52995697      -8.25652741       2.94680618       0.00000000       2.63708103
C       15.00000000      15.00000000      21.58156005  F       0.00000000       0.00000000       0.00000000      -6.15494457       2.94629247       0.00000000      -5.10372143
C       17.49202390      15.00000000      21.58156005  T       0.15391903       0.13278570      -0.48638849      -7.97770185       0.00000000       0.00000000      -0.00000000
C       19.98404780      15.00000000      21.58156005  T       0.23840053       0.42843411      -1.20058515      -7.97770185       0.00000000       0.00000000      -0.00000000
C       22.47607170      15.00000000      21.58156005  T      -0.08453460      -0.02400760      -0.23231107      -7.97770185       0.00000000       0.00000000      -0.00000000
C       24.96809560      15.00000000      21.58156005  T       0.18416865       0.86658034       0.26351972      -8.25652741       2.94680618       0.00000000      -2.63708103
C       16.24601195      15.00000000      22.30094538  T       0.74370892      -0.05713778      -0.09632189      -8.25652741      -2.94680618       0.00000000       2.63708103
C       18.73803585      15.00000000      22.30094538  T       0.80776042      -0.33608334      -0.68917244      -7.97770185       0.00000000       0.00000000       0.00000000
C       21.23005975      15.00000000      22.30094538  T       0.79801554      -0.96434750      -0.04937697      -7.97770185       0.00000000       0.00000000       0.00000000
C       23.72208365      15.00000000      22.30094538  T      -0.52805960      -0.76968458       0.09167160      -7.97770185       0.00000000       0.00000000       0.00000000
C       26.21410755      15.00000000      22.30094538  F       0.00000000       0.00000000       0.00000000      -6.15494457      -2.94629247       0.00000000       5.10372143
C       16.24601195      15.00000000      23.73971605  T       0.47287232      -0.13737456       0.55581802      -8.25652741      -2.94680618       0.00000000      -2.63708103
C       18.73803585      15.00000000      23.73971605  T       1.24350819       0.30680651       0.68059985      -7.97770185       0.00000000       0.00000000      -0.00000000
C       21.23005975      15.00000000      23.73971605  T       0.99812084      -0.01638177       0.46541470      -7.97770185       0.00000000       0.00000000      -0.00000000
C       23.72208365      15.00000000      23.73971605  T       0.08746252       0.32131549       0.45635113      -7.97770185       0.00000000       0.00000000      -0.00000000
C       26.21410755      15.00000000      23.73971605  F       0.00000000       0.00000000       0.00000000      -6.15494457      -2.94629247       0.00000000      -5.10372143
C       15.00000000      15.00000000      24.45910139  F       0.00000000       0.00000000       0.00000000      -6.15494457       2.94629247       0.00000000       5.10372143
C       17.49202390      15.00000000      24.45910139  T      -1.15212770      -0.11879750      -0.93574947      -7.97770185       0.00000000       0.00000000      -0.00000000
C       19.98404780      15.00000000      24.45910139  T       1.61820122       0.33629068       0.61635989      -7.97770185       0.00000000       0.00000000      -0.00000000
C       22.47607170      15.00000000      24.45910139  T       0.32101713       0.19643312       0.17315993      -7.97770185       0.00000000       0.00000000      -0.00000000
C       24.96809560      15.00000000      24.45910139  T       0.59181925       1.55973290      -0.22178847      -8.25652741       2.94680618       0.00000000       2.63708103
C       15.00000000      15.00000000      25.89787206  F       0.00000000       0.00000000       0.00000000      -6.15494457       2.94629247       0.00000000      -5.10372143
C       17.49202390      15.00000000      25.89787206  T      -0.29713671      -0.50907263      -0.20377090      -7.97770185       0.00000000       0.00000000       0.00000000
C       19.98404780      15.00000000      25.89787206  T       0.36361860       0.14983681       0.95132151      -7.97770185       0.00000000       0.00000000       0.00000000
C       22.47607170      15.00000000      25.89787206  T      -0.37291040       1.83562991       1.27276276      -7.97770185       0.00000000       0.00000000       0.00000000
C       24.96809560      15.00000000      25.89787206  T       0.38506295       0.18966238      -0.28016583      -8.25652741       2.94680618       0.00000000      -2.63708103
C       16.24601195      15.00000000      26.61725739  T      -0.47883466       0.12982870      -0.80114969      -8.25652741      -2.94680618       0.00000000       2.63708103
C       18.73803585      15.00000000      26.61725739  T      -0.50239455      -0.92917342       0.51218567      -7.97770185       0.00000000       0.00000000       0.00000000
C       21.23005975      15.00000000      26.61725739  T      -1.59616341      -0.06247657       0.12959051      -7.97770185       0.00000000       0.00000000       0.00000000
C       23.72208365      15.00000000      26.61725739  T       0.01177589       0.35150642       1.16677471      -7.97770185       0.00000000       0.00000000       0.00000000
C       26.21410755      15.00000000      26.61725739  F       0.00000000       0.00000000       0.00000000      -6.15494457      -2.94629247       0.00000000       5.10372143
C       16.24601195      15.00000000      28.05602806  T       0.00804250       0.83945485       0.16159132      -8.25652741      -2.94680618       0.00000000      -2.63708103
C       18.73803585      15.00000000      28.05602806  T      -0.00017905      -0.22972028       0.78388587      -7.97770185       0.00000000       0.00000000       0.00000000
C       21.23005975      15.00000000      28.05602806  T       0.70351351      -0.09369746      -0.75096651      -7.97770185       0.00000000       0.00000000       0.00000000
C       23.72208365      15.00000000      28.05602806  T       0.32868058      -0.60981486      -0.18169639      -7.97770185       0.00000000       0.00000000       0.00000000
C       26.21410755      15.00000000      28.05602806  F       0.00000000       0.00000000       0.00000000      -6.15494457      -2.94629247       0.00000000      -5.10372143
C       15.00000000      15.00000000      28.77541340  F       0.00000000       0.00000000       0.00000000      -6.15494457       2.94629247       0.00000000       5.10372143
C       17.49202390      15.00000000      28.77541340  T      -0.98260887       1.14610246      -0.40016086      -7.97770185       0.00000000       0.00000000      -0.00000000
C       19.98404780      15.00000000      28.77541340  T      -1.06880857       0.16866351       0.16356557      -7.97770185       0.00000000       0.00000000      -0.00000000
C       22.47607170      15.00000000      28.77541340  T      -0.53229398      -1.00532399      -0.10497970      -7.97770185       0.00000000       0.00000000      -0.00000000
C       24.96809560      15.00000000      28.77541340  T       0.55544104      -0.40098448       0.07788585      -8.25652741       2.94680618       0.00000000       2.63708103
C       15.00000000      15.00000000      30.21418407  F       0.00000000       0.00000000       0.00000000      -6.15494457       2.94629247       0.00000000      -5.10372143
C       17.49202390      15.00000000      30.21418407  T       0.43857839       0.24011918      -0.46621772      -7.97770185       0.00000000       0.00000000      -0.00000000
C       19.98404780      15.00000000      30.21418407  T       0.44467825       0.23783329       0.23906736      -7.97770185       0.00000000       0.00000000      -0.00000000
C       22.47607170      15.00000000      30.21418407  T      -0.33613875      -0.23275589       0.32285122      -7.97770185       0.00000000       0.00000000      -0.00000000
C       24.96809560      15.00000000      30.21418407  T      -0.00480969       0.31833697      -1.32423906      -8.25652741       2.94680618       0.00000000      -2.63708103
C       16.24601195      15.00000000      30.93356940  T      -1.12095531       0.14944884      -0.25620924      -8.25652741      -2.94680618       0.00000000       2.63708103
C       18.73803585      15.00000000      30.93356940  T       0.48063491       0.20304862      -0.75529928      -7.97770185       0.00000000       0.00000000       0.00000000
C       21.23005975      15.00000000      30.93356940  T      -1.12811977       0.18168463      -0.02525037      -7.97770185       0.00000000       0.00000000       0.00000000
C       23.72208365      15.00000000      30.93356940  T       0.30267697       0.10811645       0.31801184      -7.97770185       0.00000000       0.00000000       0.00000000
C       26.21410755      15.00000000      30.93356940  F       0.00000000       0.00000000       0.00000000      -6.15494457      -2.94629247       0.00000000       5.10372143
C       16.24601195      15.00000000      32.37234007  T       0.09992539       1.30924730       0.92699412      -8.25652741      -2.94680618       0.00000000      -2.63708103
C       18.73803585      15.00000000      32.37234007  T      -0.12691935       0.05654831       0.88602997      -7.97770185       0.00000000       0.00000000      -0.00000000
C       21.23005975      15.00000000      32.37234007  T      -0.39625593       0.03864203      -0.02131756      -7.97770185       0.00000000       0.00000000      -0.00000000
C       23.72208365      15.00000000      32.37234007  T      -0.16737142       0.12505553      -0.93885485      -7.97770185       0.00000000       0.00000000      -0.00000000
C       26.21410755      15.00000000      32.37234007  F       0.00000000       0.00000000       0.00000000      -6.15494457      -2.94629247       0.00000000      -5.10372143
C       15.00000000      15.00000000      33.09172541  F       0.00000000       0.00000000       0.00000000      -6.15494457       2.94629247       0.00000000       5.10372143
C       17.49202390      15.00000000      33.09172541  T      -0.72678991       1.12732003       0.36326687      -7.97770185       0.00000000       0.00000000       0.00000000
C       19.98404780      15.00000000      33.09172541  T       0.57272200      -0.32706018      -0.35920069      -7.97770185       0.00000000       0.00000000       0.00000000
C       22.47607170      15.00000000      33.09172541  T       0.07922132      -0.24194923       0.05568145      -7.97770185       0.00000000       0.00000000       0.00000000
C       24.96809560      15.00000000      33.09172541  T      -0.11849285      -0.76087104      -0.04706496      -8.25652741       2.94680618       0.00000000       2.63708103
C       15.00000000      15.00000000      34.53049608  F       0.00000000       0.00000000       0.00000000      -6.15494457       2.94629247       0.00000000      -5.10372143
C       17.49202390      15.00000000      34.53049608  T       0.27845434       0.06468144       0.22070905      -7.97770185       0.00000000       0.00000000      -0.00000000
C       19.98404780      15.00000000      34.53049608  T       0.05145341      -0.02632669      -0.01108220      -7.97770185       0.00000000       0.00000000      -0.00000000
C       22.47607170      15.00000000      34.53049608  T       0.14509494       0.67644833       0.48406865      -7.97770185       0.00000000       0.00000000      -0.00000000
C       24.96809560      15.00000000      34.53049608  T      -0.37582981      -0.33858532      -0.32557775      -8.25652741       2.94680618       0.00000000      -2.63708103
C       16.24601195      15.00000000      35.24988141  T       0.27810822      -0.38453625      -0.36703363      -8.25652741      -2.94680618       0.00000000       2.63708103
C       18.73803585      15.00000000      35.24988141  T      -0.33905731       0.76578943      -0.43662545      -7.97770185       0.00000000       0.00000000       0.00000000
C       21.23005975      15.00000000      35.24988141  T       0.06962505       0.13918616      -0.19743304      -7.97770185       0.00000000       0.00000000       0.00000000