380
Lattice="41.214107553959614 0.0 0.0 0.0 30.0 0.0 0.0 0.0 82.00992819" Properties=species:S:1:pos:R:3:move_mask:L:1:momenta:R:3:energies:R:1:forces:R:3 energy=-2914.1878938329974 free_energy=-2914.1878938329974 stress="0.002749875030964769 0.0 -3.5595378297484964e-18 0.0 0.0 0.0 -3.5595378297484964e-18 0.0 -9.405873615557953e-05" pbc="T T T"
C       15.00000000      15.00000000       0.00000000  F       0.00000000       0.00000000       0.00000000      -6.15494457       2.94629247       0.00000000      -5.10372143
C       17.49202390      15.00000000       0.00000000  F       0.00000000       0.00000000       0.00000000      -7.97770185       0.00000000       0.00000000      -0.00000000
C       19.98404780      15.00000000       0.00000000  F       0.00000000       0.00000000       0.00000000      -7.97770185       0.00000000       0.00000000      -0.00000000
C       22.47607170      15.00000000       0.00000000  F       0.00000000       0.00000000       0.00000000      -7.97770185       0.00000000       0.00000000      -0.00000000
C       24.96809560      15.00000000       0.00000000  F       0.00000000       0.00000000       0.00000000      -8.25652741       2.94680618       0.00000000      -2.63708103
C       16.24601195      15.00000000       0.71938534  F       0.00000000       0.00000000       0.00000000      -8.25652741      -2.94680618       0.00000000       2.63708103
C       18.73803585      15.00000000       0.71938534  F       0.00000000       0.00000000       0.00000000      -7.97770185       0.00000000       0.00000000      -0.00000000
C       21.23005975      15.00000000       0.71938534  F       0.00000000       0.00000000       0.00000000      -7.97770185       0.00000000       0.00000000      -0.00000000
C       23.72208365      15.00000000       0.71938534  F       0.00000000       0.00000000       0.00000000      -7.97770185       0.00000000       0.00000000      -0.00000000
C       26.21410755      15.00000000       0.71938534  F       0.00000000       0.00000000       0.00000000      -6.15494457      -2.94629247       0.00000000       5.10372143
C       16.24601195      15.00000000       2.15815600  F       0.00000000       0.00000000       0.00000000      -8.25652741      -2.94680618       0.00000000      -2.63708103
C       18.73803585      15.00000000       2.15815600  F       0.00000000       0.00000000       0.00000000      -7.97770185       0.00000000       0.00000000       0.00000000
C       21.23005975      15.00000000       2.15815600  F       0.00000000       0.00000000       0.00000000      -7.97770185       0.00000000       0.00000000       0.00000000
C       23.72208365      15.00000000       2.15815600  F       0.00000000       0.00000000       0.00000000      -7.97770185       0.00000000       0.00000000       0.00000000
C       26.21410755      15.00000000       2.15815600  F       0.00000000       0.00000000       0.00000000      -6.15494457      -2.94629247       0.00000000      -5.10372143
C       15.00000000      15.00000000       2.87754134  F       0.00000000       0.00000000       0.00000000      -6.15494457       2.94629247       0.00000000       5.10372143
C       17.49202390      15.00000000       2.87754134  F       0.00000000       0.00000000       0.00000000      -7.97770185       0.00000000       0.00000000      -0.00000000
C       19.98404780      15.00000000       2.87754134  F       0.00000000       0.00000000       0.00000000      -7.97770185       0.00000000       0.00000000      -0.00000000
C       22.47607170      15.00000000       2.87754134  F       0.00000000       0.00000000       0.00000000      -7.97770185       0.00000000       0.00000000      -0.00000000
C       24.96809560      15.00000000       2.87754134  F       0.00000000       0.00000000       0.00000000      -8.25652741       2.94680618       0.00000000       2.63708103
C       15.00000000      15.00000000       4.31631201  F       0.00000000       0.00000000       0.00000000      -6.15494457       2.94629247       0.00000000      -5.10372143
C       17.49202390      15.00000000       4.31631201  F       0.00000000       0.00000000       0.00000000      -7.97770185       0.00000000       0.00000000       0.00000000
C       19.98404780      15.00000000       4.31631201  F       0.00000000       0.00000000       0.00000000      -7.97770185       0.00000000       0.00000000       0.00000000
C       22.47607170      15.00000000       4.31631201  F       0.00000000       0.00000000       0.00000000      -7.97770185       0.00000000       0.00000000       0.00000000
C       24.96809560      15.00000000       4.31631201  F       0.00000000       0.00000000       0.00000000      -8.25652741       2.94680618       0.00000000      -2.63708103
C       16.24601195      15.00000000       5.03569734  F       0.00000000       0.00000000       0.00000000      -8.25652741      -2.94680618       0.00000000       2.63708103
C       18.73803585      15.00000000       5.03569734  F       0.00000000       0.00000000       0.00000000      -7.97770185       0.00000000       0.00000000      -0.00000000
C       21.23005975      15.00000000       5.03569734  F       0.00000000       0.00000000       0.00000000      -7.97770185       0.00000000       0.00000000      -0.00000000
C       23.72208365      15.00000000       5.03569734  F       0.00000000       0.00000000       0.00000000      -7.97770185       0.00000000       0.00000000      -0.00000000
C       26.21410755      15.00000000       5.03569734  F       0.00000000       0.00000000       0.00000000      -6.15494457      -2.94629247       0.00000000       5.10372143
C       16.24601195      15.00000000       6.47446801  F       0.00000000       0.00000000       0.00000000      -8.25652741      -2.94680618       0.00000000      -2.63708103
C       18.73803585      15.00000000       6.47446801  F       0.00000000       0.00000000       0.00000000      -7.97770185       0.00000000       0.00000000       0.00000000
C       21.23005975      15.00000000       6.47446801  F       0.00000000       0.00000000       0.00000000      -7.97770185       0.00000000       0.00000000       0.00000000
C       23.72208365      15.00000000       6.47446801  F       0.00000000       0.00000000       0.00000000      -7.97770185       0.00000000       0.00000000       0.00000000
C       26.21410755      15.00000000       6.47446801  F       0.00000000       0.00000000       0.00000000      -6.15494457      -2.94629247       0.00000000      -5.10372143
C       15.00000000      15.00000000       7.19385335  F       0.00000000       0.00000000       0.00000000      -6.15494457       2.94629247       0.00000000       5.10372143
C       17.49202390      15.00000000       7.19385335  F       0.00000000       0.00000000       0.00000000      -7.97770185       0.00000000       0.00000000       0.00000000
C       19.98404780      15.00000000       7.19385335  F       0.00000000       0.00000000       0.00000000      -7.97770185       0.00000000       0.00000000       0.00000000
C       22.47607170      15.00000000       7.19385335  F       0.00000000       0.00000000       0.00000000      -7.97770185       0.00000000       0.00000000       0.00000000
C       24.96809560      15.00000000       7.19385335  F       0.00000000       0.00000000       0.00000000      -8.25652741       2.94680618       0.00000000       2.63708103
C       15.00000000      15.00000000       8.63262402  F       0.00000000       0.00000000       0.00000000      -6.15494457       2.94629247       0.00000000      -5.10372143
C       17.49202390      15.00000000       8.63262402  T      -0.69787360      -0.16905412       0.46861009      -7.97770185       0.00000000       0.00000000      -0.00000000
C       19.98404780      15.00000000       8.63262402  T      -0.15210613      -0.09492327      -0.20893002      -7.97770185       0.00000000       0.00000000      -0.00000000
C       22.47607170      15.00000000       8.63262402  T      -0.20270922      -0.60786614       0.56547920      -7.97770185       0.00000000       0.00000000      -0.00000000
C       24.96809560      15.00000000       8.63262402  T       0.49859976      -0.72078488       0.42311343      -8.25652741       2.94680618       0.00000000      -2.63708103
C       16.24601195      15.00000000       9.35200935  T       0.37410439      -0.37782142       0.75192729      -8.25652741      -2.94680618       0.00000000       2.63708103
C       18.73803585      15.00000000       9.35200935  T      -0.29366056      -0.15749979       0.47309496      -7.97770185       0.00000000       0.00000000       0.00000000
C       21.23005975      15.00000000       9.35200935  T       0.21544800       0.17689814       0.00926260      -7.97770185       0.00000000       0.00000000       0.00000000
C       23.72208365      15.00000000       9.35200935  T      -0.14247305      -0.39469548       1.25979201      -7.97770185       0.00000000       0.00000000       0.00000000
C       26.21410755      15.00000000       9.35200935  F       0.00000000       0.00000000       0.00000000      -6.15494457      -2.94629247       0.00000000       5.10372143
C       16.24601195      15.00000000      10.79078003  T      -0.19686016       0.94935853      -0.58898038      -8.25652741      -2.94680618       0.00000000      -2.63708103
C       18.73803585      15.00000000      10.79078003  T      -0.07081503       0.18006383      -0.08244269      -7.97770185       0.00000000       0.00000000      -0.00000000
C       21.23005975      15.00000000      10.79078003  T       0.41855223       0.55305400       0.40600163      -7.97770185       0.00000000       0.00000000      -0.00000000
C       23.72208365      15.00000000      10.79078003  T      -0.56482065       0.20029505      -0.25748131      -7.97770185       0.00000000       0.00000000      -0.00000000
C       26.21410755      15.00000000      10.79078003  F       0.00000000       0.00000000       0.00000000      -6.15494457      -2.94629247       0.00000000      -5.10372143
C       15.00000000      15.00000000      11.51016536  F       0.00000000       0.00000000       0.00000000      -6.15494457       2.94629247       0.00000000       5.10372143
C       17.49202390      15.00000000      11.51016536  T      -0.32024093      -0.48725844       0.54998477      -7.97770185       0.00000000       0.00000000      -0.00000000
C       19.98404780      15.00000000      11.51016536  T      -0.23206618       1.05585995       0.24721735      -7.97770185       0.00000000       0.00000000      -0.00000000
C       22.47607170      15.00000000      11.51016536  T       1.07410987       0.05278204       0.51346135      -7.97770185       0.00000000       0.00000000      -0.00000000
C       24.96809560      15.00000000      11.51016536  T       0.27859869      -0.42604442      -0.16511041      -8.25652741       2.94680618       0.00000000       2.63708103
C       15.00000000      15.00000000      12.94893603  F       0.00000000       0.00000000       0.00000000      -6.15494457       2.94629247       0.00000000      -5.10372143
C       17.49202390      15.00000000      12.94893603  T      -0.11740138       0.77334524      -0.39182351      -7.97770185       0.00000000       0.00000000       0.00000000
C       19.98404780      15.00000000      12.94893603  T       0.11031973      -0.10443360       0.89261989      -7.97770185       0.00000000       0.00000000       0.00000000
C       22.47607170      15.00000000      12.94893603  T      -0.59839929      -0.92858480       0.38950997      -7.97770185       0.00000000       0.00000000       0.00000000
C       24.96809560      15.00000000      12.94893603  T       0.59951996      -0.37785913      -0.64651916      -8.25652741       2.94680618       0.00000000      -2.63708103
C       16.24601195      15.00000000      13.66832136  T      -0.23090004       0.13258719      -1.41765010      -8.25652741      -2.94680618       0.00000000       2.63708103
C       18.73803585      15.00000000      13.66832136  T       0.28033926      -1.31426575      -0.07857038      -7.97770185       0.00000000       0.00000000       0.00000000
C       21.23005975      15.00000000      13.66832136  T      -0.80884272      -0.07039118      -0.76299365      -7.97770185       0.00000000       0.00000000       0.00000000
C       23.72208365      15.00000000      13.66832136  T      -0.97822703      -0.19928521      -0.49808731      -7.97770185       0.00000000       0.00000000       0.00000000
C       26.21410755      15.00000000      13.66832136  F       0.00000000       0.00000000       0.00000000      -6.15494457      -2.94629247       0.00000000       5.10372143
C       16.24601195      15.00000000      15.10709203  T      -0.63603500      -0.29115621      -0.23273335      -8.25652741      -2.94680618       0.00000000      -2.63708103
C       18.73803585      15.00000000      15.10709203  T       0.04353486      -0.06337889      -0.60042902      -7.97770185       0.00000000       0.00000000      -0.00000000
C       21.23005975      15.00000000      15.10709203  T      -0.90688083       0.86929505       0.41245581      -7.97770185       0.00000000       0.00000000      -0.00000000
C       23.72208365      15.00000000      15.10709203  T      -0.42554780       0.10468583      -0.28941213      -7.97770185       0.00000000       0.00000000      -0.00000000
C       26.21410755      15.00000000      15.10709203  F       0.00000000       0.00000000       0.00000000      -6.15494457      -2.94629247       0.00000000      -5.10372143
C       15.00000000      15.00000000      15.82647737  F       0.00000000       0.00000000       0.00000000      -6.15494457       2.94629247       0.00000000       5.10372143
C       17.49202390      15.00000000      15.82647737  T       0.31915593      -0.62955833       0.00964395      -7.97770185       0.00000000       0.00000000       0.00000000
C       19.98404780      15.00000000      15.82647737  T       0.14985087       0.09202116      -0.10915595      -7.97770185       0.00000000       0.00000000       0.00000000
C       22.47607170      15.00000000      15.82647737  T       0.33343589      -0.48122203       0.66638095      -7.97770185       0.00000000       0.00000000       0.00000000
C       24.96809560      15.00000000      15.82647737  T      -0.05632562       0.43953687       0.23012371      -8.25652741       2.94680618       0.00000000       2.63708103
C       15.00000000      15.00000000      17.26524804  F       0.00000000       0.00000000       0.00000000      -6.15494457       2.94629247       0.00000000      -5.10372143
C       17.49202390      15.00000000      17.26524804  T       1.83916714       0.19998790       0.02879334      -7.97770185       0.00000000       0.00000000      -0.00000000
C       19.98404780      15.00000000      17.26524804  T       0.55426216      -0.04171064       0.42701275      -7.97770185       0.00000000       0.00000000      -0.00000000
C       22.47607170      15.00000000      17.26524804  T      -0.63275291       0.07182714      -0.78260479      -7.97770185       0.00000000       0.00000000      -0.00000000
C       24.96809560      15.00000000      17.26524804  T       0.15127096       0.95497971       0.47953624      -8.25652741       2.94680618       0.00000000      -2.63708103
C       16.24601195      15.00000000      17.98463337  T       0.83659609      -0.54462012      -0.19863530      -8.25652741      -2.94680618       0.00000000       2.63708103
C       18.73803585      15.00000000      17.98463337  T       0.40024649       0.09964188      -0.77375421      -7.97770185       0.00000000       0.00000000       0.00000000
C       21.23005975      15.00000000      17.98463337  T      -0.16977625       0.43297726       0.33886244      -7.97770185       0.00000000       0.00000000       0.00000000
C       23.72208365      15.00000000      17.98463337  T       1.05507011      -0.20180099      -0.83733901      -7.97770185       0.00000000       0.00000000       0.00000000
C       26.21410755      15.00000000      17.98463337  F       0.00000000       0.00000000       0.00000000      -6.15494457      -2.94629247       0.00000000       5.10372143
C       16.24601195      15.00000000      19.42340404  T      -0.85373297       0.50972848       0.88161252      -8.25652741      -2.94680618       0.00000000      -2.63708103
C       18.73803585      15.00000000      19.42340404  T      -0.28902846      -0.09062010       0.68782932      -7.97770185       0.00000000       0.00000000       0.00000000
C       21.23005975      15.00000000      19.42340404  T      -0.36645757      -0.05535768       0.20031245      -7.97770185       0.00000000       0.00000000       0.00000000
C       23.72208365      15.00000000      19.42340404  T      -0.29859897      -0.46393483      -0.19566071      -7.97770185       0.00000000       0.00000000       0.00000000
C       26.21410755      15.00000000      19.42340404  F       0.00000000       0.00000000       0.00000000      -6.15494457      -2.94629247       0.00000000      -5.10372143
C       15.00000000      15.00000000      20.14278938  F       0.00000000       0.00000000       0.00000000      -6.15494457       2.94629247       0.00000000       5.10372143
C       17.49202390      15.00000000      20.14278938  T      -0.36750178      -0.52356813      -0.30669173      -7.97770185       0.00000000       0.00000000      -0.00000000
C       19.98404780      15.00000000      20.14278938  T       0.35479998      -0.83214585      -0.03812501      -7.97770185       0.00000000       0.00000000      -0.00000000
C       22.47607170      15.00000000      20.14278938  T      -0.14734440      -0.58117370      -0.68733777      -7.97770185       0.00000000       0.00000000      -0.00000000
C       24.96809560      15.00000000      20.14278938  T       0.21631647      -0.62824208       0.24911075      -8.25652741       2.94680618       0.00000000       2.63708103
C       15.00000000      15.00000000      21.58156005  F       0.00000000       0.00000000       0.00000000      -6.15494457       2.94629247       0.00000000      -5.10372143
C       17.49202390      15.00000000      21.58156005  T       0.28138747      -0.60536363       0.20843336      -7.97770185       0.00000000       0.00000000      -0.00000000
C       19.98404780      15.00000000      21.58156005  T      -0.07273404      -0.29420799      -0.21033323      -7.97770185       0.00000000       0.00000000      -0.00000000
C       22.47607170      15.00000000      21.58156005  T      -0.54791420      -0.22768887      -0.16925815      -7.97770185       0.00000000       0.00000000      -0.00000000
C       24.96809560      15.00000000      21.58156005  T      -0.50201780      -0.01994275      -0.38578662      -8.25652741       2.94680618       0.00000000      -2.63708103
C       16.24601195      15.00000000      22.30094538  T       0.31428659      -0.39931456       0.61299624      -8.25652741      -2.94680618       0.00000000       2.63708103
C       18.73803585      15.00000000      22.30094538  T      -0.22532488      -0.36993995      -0.05041301      -7.97770185       0.00000000       0.00000000       0.00000000
C       21.23005975      15.00000000      22.30094538  T      -0.08472404      -0.66042022      -0.13953000      -7.97770185       0.00000000       0.00000000       0.00000000
C       23.72208365      15.00000000      22.30094538  T       0.75629306      -0.37208228       0.25007956      -7.97770185       0.00000000       0.00000000       0.00000000
C       26.21410755      15.00000000      22.30094538  F       0.00000000       0.00000000       0.00000000      -6.15494457      -2.94629247       0.00000000       5.10372143
C       16.24601195      15.00000000      23.73971605  T      -0.36100871      -0.11183618      -0.12297933      -8.25652741      -2.94680618       0.00000000      -2.63708103
C       18.73803585      15.00000000      23.73971605  T      -0.42652143      -0.03859876      -0.18317913      -7.97770185       0.00000000       0.00000000      -0.00000000
C       21.23005975      15.00000000      23.73971605  T      -0.45741551      -0.15515575       0.93849673      -7.97770185       0.00000000       0.00000000      -0.00000000
C       23.72208365      15.00000000      23.73971605  T       0.13193867      -0.12691123       0.29611753      -7.97770185       0.00000000       0.00000000      -0.00000000
C       26.21410755      15.00000000      23.73971605  F       0.00000000       0.00000000       0.00000000      -6.15494457      -2.94629247       0.00000000      -5.10372143
C       15.00000000      15.00000000      24.45910139  F       0.00000000       0.00000000       0.00000000      -6.15494457       2.94629247       0.00000000       5.10372143
C       17.49202390      15.00000000      24.45910139  T       0.12113158      -0.92619239       0.33188960      -7.97770185       0.00000000       0.00000000      -0.00000000
C       19.98404780      15.00000000      24.45910139  T       0.17091330       0.54074775       0.65079710      -7.97770185       0.00000000       0.00000000      -0.00000000
C       22.47607170      15.00000000      24.45910139  T      -0.04311271      -0.97686637      -0.63943450      -7.97770185       0.00000000       0.00000000      -0.00000000
C       24.96809560      15.00000000      24.45910139  T       0.87562610      -1.05496437       0.11148165      -8.25652741       2.94680618       0.00000000       2.63708103
C       15.00000000      15.00000000      25.89787206  F       0.00000000       0.00000000       0.00000000      -6.15494457       2.94629247       0.00000000      -5.10372143
C       17.49202390      15.00000000      25.89787206  T      -0.30471430      -0.76055199       1.10087628      -7.97770185       0.00000000       0.00000000       0.00000000
C       19.98404780      15.00000000      25.89787206  T       0.43157902       0.15150321      -0.17331188      -7.97770185       0.00000000       0.00000000       0.00000000
C       22.47607170      15.00000000      25.89787206  T       0.24479254      -0.49867471      -0.26671650      -7.97770185       0.00000000       0.00000000       0.00000000
C       24.96809560      15.00000000      25.89787206  T       1.19700496       0.18742462       0.04854500      -8.25652741       2.94680618       0.00000000      -2.63708103
C       16.24601195      15.00000000      26.61725739  T      -0.04398128       0.58163363       0.62884885      -8.25652741      -2.94680618       0.00000000       2.63708103
C       18.73803585      15.00000000      26.61725739  T      -0.22561918      -0.02127262       0.04724311      -7.97770185       0.00000000       0.00000000       0.00000000
C       21.23005975      15.00000000      26.61725739  T      -0.23487705      -0.72390437       0.07337057      -7.97770185       0.00000000       0.00000000       0.00000000
C       23.72208365      15.00000000      26.61725739  T       0.61052104       0.54848094      -0.60359556      -7.97770185       0.00000000       0.00000000       0.00000000
C       26.21410755      15.00000000      26.61725739  F       0.00000000       0.00000000       0.00000000      -6.15494457      -2.94629247       0.00000000       5.10372143
C       16.24601195      15.00000000      28.05602806  T      -0.90748834       0.00236321       0.12894372      -8.25652741      -2.94680618       0.00000000      -2.63708103
C       18.73803585      15.00000000      28.05602806  T       0.80026463       0.16353474       1.02444480      -7.97770185       0.00000000       0.00000000       0.00000000
C       21.23005975      15.00000000      28.05602806  T       0.49908201       0.36881713      -0.35184514      -7.97770185       0.00000000       0.00000000       0.00000000
C       23.72208365      15.00000000      28.05602806  T      -0.46721211      -0.89367594      -0.02178286      -7.97770185       0.00000000       0.00000000       0.00000000
C       26.21410755      15.00000000      28.05602806  F       0.00000000       0.00000000       0.00000000      -6.15494457      -2.94629247       0.00000000      -5.10372143
C       15.00000000      15.00000000      28.77541340  F       0.00000000       0.00000000       0.00000000      -6.15494457       2.94629247       0.00000000       5.10372143
C       17.49202390      15.00000000      28.77541340  T       1.18443401      -0.14377411       0.47877764      -7.97770185       0.00000000       0.00000000      -0.00000000
C       19.98404780      15.00000000      28.77541340  T      -0.29101459       0.08017289       0.42024804      -7.97770185       0.00000000       0.00000000      -0.00000000
C       22.47607170      15.00000000      28.77541340  T       0.24612789      -0.67861431      -0.02893375      -7.97770185       0.00000000       0.00000000      -0.00000000
C       24.96809560      15.00000000      28.77541340  T       0.36237317      -0.15780115       0.47884499      -8.25652741       2.94680618       0.00000000       2.63708103
C       15.00000000      15.00000000      30.21418407  F       0.00000000       0.00000000       0.00000000      -6.15494457       2.94629247       0.00000000      -5.10372143
C       17.49202390      15.00000000      30.21418407  T      -0.73276696      -0.07384082       0.45119397      -7.97770185       0.00000000       0.00000000      -0.00000000
C       19.98404780      15.00000000      30.21418407  T      -0.12732107       0.31172921      -0.31849101      -7.97770185       0.00000000       0.00000000      -0.00000000
C       22.47607170      15.00000000      30.21418407  T       0.44467379      -0.06254813       0.18359861      -7.97770185       0.00000000       0.00000000      -0.00000000
C       24.96809560      15.00000000      30.21418407  T       0.15304402       0.08348853       0.13450260      -8.25652741       2.94680618       0.00000000      -2.63708103
C       16.24601195      15.00000000      30.93356940  T      -0.11093320      -0.59207546      -0.99386811      -8.25652741      -2.94680618       0.00000000       2.63708103
C       18.73803585      15.00000000      30.93356940  T       0.30102704      -0.53251086       0.09241019      -7.97770185       0.00000000       0.00000000       0.00000000
C       21.23005975      15.00000000      30.93356940  T      -0.17016833       0.54699789       1.30402455      -7.97770185       0.00000000       0.00000000       0.00000000
C       23.72208365      15.00000000      30.93356940  T       0.07895898      -0.02051557      -0.05215127      -7.97770185       0.00000000       0.00000000       0.00000000
C       26.21410755      15.00000000      30.93356940  F       0.00000000       0.00000000       0.00000000      -6.15494457      -2.94629247       0.00000000       5.10372143
C       16.24601195      15.00000000      32.37234007  T       0.18668512       0.15570066       0.73589658      -8.25652741      -2.94680618       0.00000000      -2.63708103
C       18.73803585      15.00000000      32.37234007  T       0.16107549       0.18121930       0.31213234      -7.97770185       0.00000000       0.00000000      -0.00000000
C       21.23005975      15.00000000      32.37234007  T       0.05845251       0.00772357       0.35052777      -7.97770185       0.00000000       0.00000000      -0.00000000
C       23.72208365      15.00000000      32.37234007  T      -0.69622039      -0.80013728      -0.24462541      -7.97770185       0.00000000       0.00000000      -0.00000000
C       26.21410755      15.00000000      32.37234007  F       0.00000000       0.00000000       0.00000000      -6.15494457      -2.94629247       0.00000000      -5.10372143
C       15.00000000      15.00000000      33.09172541  F       0.00000000       0.00000000       0.00000000      -6.15494457       2.94629247       0.00000000       5.10372143
C       17.49202390      15.00000000      33.09172541  T      -0.33877599       0.31156832      -0.62534379      -7.97770185       0.00000000       0.00000000       0.00000000
C       19.98404780      15.00000000      33.09172541  T      -0.63969629      -0.69275764      -0.13550408      -7.97770185       0.00000000       0.00000000       0.00000000
C       22.47607170      15.00000000      33.09172541  T       0.06953337      -0.91873365      -0.30424201      -7.97770185       0.00000000       0.00000000       0.00000000
C       24.96809560      15.00000000      33.09172541  T      -0.18050306       1.38299100      -0.24668752      -8.25652741       2.94680618       0.00000000       2.63708103
C       15.00000000      15.00000000      34.53049608  F       0.00000000       0.00000000       0.00000000      -6.15494457       2.94629247       0.00000000      -5.10372143
C       17.49202390      15.00000000      34.53049608  T       0.11763097       0.00863305       0.22988078      -7.97770185       0.00000000       0.00000000      -0.00000000
C       19.98404780      15.00000000      34.53049608  T      -0.00755193       0.75331523       0.33067049      -7.97770185       0.00000000       0.00000000      -0.00000000
C       22.47607170      15.00000000      34.53049608  T       0.55570817       0.62596567      -0.44832930      -7.97770185       0.00000000       0.00000000      -0.00000000
C       24.96809560      15.00000000      34.53049608  T      -0.45977307       1.44739235       0.87362662      -8.25652741       2.94680618       0.00000000      -2.63708103
C       16.24601195      15.00000000      35.24988141  T      -0.58437042      -0.37363428       0.10036571      -8.25652741      -2.94680618       0.00000000       2.63708103
C       18.73803585      15.00000000      35.24988141  T      -0.26377622      -0.37357601       0.09822303      -7.97770185       0.00000000       0.00000000       0.00000000
C       21.23005975      15.00000000      35.24988141  T       0.70481011       0.11253020      -0.30861710      -7.97770185       0.00000000       0.00000000       0.00000000