200
Lattice="41.214107553959614 0.0 0.0 0.0 30.0 0.0 0.0 0.0 43.1631201" Properties=species:S:1:pos:R:3:move_mask:L:1:momenta:R:3:energies:R:1:forces:R:3 energy=-1533.9486385865273 free_energy=-1533.9486385865273 stress="0.0034304669347988066 1.9459692967113706e-05 0.00010401483899370491 1.9459692967113706e-05 6.079589698030606e-05 -2.0075348222839248e-06 0.00010401483899370491 -2.0075348222839248e-06 -0.0008465281597916901" pbc="T T T"
C       15.00000000      15.00000000       0.00000000  F       0.00000000       0.00000000       0.00000000      -6.15494457       2.94629247       0.00000000      -5.10372143
C       17.49202390      15.00000000       0.00000000  F       0.00000000       0.00000000       0.00000000      -7.97770185       0.00000000       0.00000000      -0.00000000
C       19.98404780      15.00000000       0.00000000  F       0.00000000       0.00000000       0.00000000      -7.97770185       0.00000000       0.00000000      -0.00000000
C       22.47607170      15.00000000       0.00000000  F       0.00000000       0.00000000       0.00000000      -7.97770185       0.00000000       0.00000000      -0.00000000
C       24.96809560      15.00000000       0.00000000  F       0.00000000       0.00000000       0.00000000      -8.25652741       2.94680618       0.00000000      -2.63708103
C       16.24601195      15.00000000       0.71938534  F       0.00000000       0.00000000       0.00000000      -8.25652741      -2.94680618       0.00000000       2.63708103
C       18.73803585      15.00000000       0.71938534  F       0.00000000       0.00000000       0.00000000      -7.97770185       0.00000000       0.00000000      -0.00000000
C       21.23005975      15.00000000       0.71938534  F       0.00000000       0.00000000       0.00000000      -7.97770185       0.00000000       0.00000000      -0.00000000
C       23.72208365      15.00000000       0.71938534  F       0.00000000       0.00000000       0.00000000      -7.97770185       0.00000000       0.00000000      -0.00000000
C       26.21410755      15.00000000       0.71938534  F       0.00000000       0.00000000       0.00000000      -6.15494457      -2.94629247       0.00000000       5.10372143
C       16.24601195      15.00000000       2.15815600  F       0.00000000       0.00000000       0.00000000      -8.25652741      -2.94680618       0.00000000      -2.63708103
C       18.73803585      15.00000000       2.15815600  F       0.00000000       0.00000000       0.00000000      -7.97770185       0.00000000       0.00000000       0.00000000
C       21.23005975      15.00000000       2.15815600  F       0.00000000       0.00000000       0.00000000      -7.97770185       0.00000000       0.00000000       0.00000000
C       23.72208365      15.00000000       2.15815600  F       0.00000000       0.00000000       0.00000000      -7.97770185       0.00000000       0.00000000       0.00000000
C       26.21410755      15.00000000       2.15815600  F       0.00000000       0.00000000       0.00000000      -6.15494457      -2.94629247       0.00000000      -5.10372143
C       15.00000000      15.00000000       2.87754134  F       0.00000000       0.00000000       0.00000000      -6.15494457       2.94629247       0.00000000       5.10372143
C       17.49202390      15.00000000       2.87754134  F       0.00000000       0.00000000       0.00000000      -7.97770185       0.00000000       0.00000000      -0.00000000
C       19.98404780      15.00000000       2.87754134  F       0.00000000       0.00000000       0.00000000      -7.97770185       0.00000000       0.00000000      -0.00000000
C       22.47607170      15.00000000       2.87754134  F       0.00000000       0.00000000       0.00000000      -7.97770185       0.00000000       0.00000000      -0.00000000
C       24.96809560      15.00000000       2.87754134  F       0.00000000       0.00000000       0.00000000      -8.25652741       2.94680618       0.00000000       2.63708103
C       15.00000000      15.00000000       4.31631201  F       0.00000000       0.00000000       0.00000000      -6.15494457       2.94629247       0.00000000      -5.10372143
C       17.49202390      15.00000000       4.31631201  F       0.00000000       0.00000000       0.00000000      -7.97770185       0.00000000       0.00000000       0.00000000
C       19.98404780      15.00000000       4.31631201  F       0.00000000       0.00000000       0.00000000      -7.97770185       0.00000000       0.00000000       0.00000000
C       22.47607170      15.00000000       4.31631201  F       0.00000000       0.00000000       0.00000000      -7.97770185       0.00000000       0.00000000       0.00000000
C       24.96809560      15.00000000       4.31631201  F       0.00000000       0.00000000       0.00000000      -8.25652741       2.94680618       0.00000000      -2.63708103
C       16.24601195      15.00000000       5.03569734  F       0.00000000       0.00000000       0.00000000      -8.25652741      -2.94680618       0.00000000       2.63708103
C       18.73803585      15.00000000       5.03569734  F       0.00000000       0.00000000       0.00000000      -7.97770185       0.00000000       0.00000000      -0.00000000
C       21.23005975      15.00000000       5.03569734  F       0.00000000       0.00000000       0.00000000      -7.97770185       0.00000000       0.00000000      -0.00000000
C       23.72208365      15.00000000       5.03569734  F       0.00000000       0.00000000       0.00000000      -7.97770185       0.00000000       0.00000000      -0.00000000
C       26.21410755      15.00000000       5.03569734  F       0.00000000       0.00000000       0.00000000      -6.15494457      -2.94629247       0.00000000       5.10372143
C       16.24601195      15.00000000       6.47446801  F       0.00000000       0.00000000       0.00000000      -8.24952912      -2.99491865       0.03381289      -2.61566586
C       18.73803585      15.00000000       6.47446801  F       0.00000000       0.00000000       0.00000000      -7.99335285       0.04510549      -0.06012300       0.16659093
C       21.23005975      15.00000000       6.47446801  F       0.00000000       0.00000000       0.00000000      -7.98215609      -0.02759312      -0.15376536       0.10932766
C       23.72208365      15.00000000       6.47446801  F       0.00000000       0.00000000       0.00000000      -8.01317516       0.17146236      -0.02138517       0.26131280
C       26.21410755      15.00000000       6.47446801  F       0.00000000       0.00000000       0.00000000      -6.10108650      -2.94390753       0.04546878      -5.57610532
C       15.00000000      15.00000000       7.19385335  F       0.00000000       0.00000000       0.00000000      -6.21939124       2.86555624       0.08338977       5.38882058
C       17.49202390      15.00000000       7.19385335  F       0.00000000       0.00000000       0.00000000      -7.93659763      -0.29059837      -0.14445579       0.77551245
C       19.98404780      15.00000000       7.19385335  F       0.00000000       0.00000000       0.00000000      -7.97707190       0.11397766       0.46108609      -0.15272489
C       22.47607170      15.00000000       7.19385335  F       0.00000000       0.00000000       0.00000000      -7.92102375       0.41024449       0.13274171       0.98421249
C       24.96809560      15.00000000       7.19385335  F       0.00000000       0.00000000       0.00000000      -8.30138172       3.88875217      -0.37066830       1.07021177
C       15.00000000      15.00000000       8.63262402  F       0.00000000       0.00000000       0.00000000      -6.31833678       1.76838915      -0.23996420      -6.20454896
C       17.48113415      14.98309644       8.66049743  T      -0.70769788       0.10414883      -0.58164019      -7.88922807      -1.11921396      -0.00544195      -0.51852044
C       19.99806652      15.04508314       8.62791242  T       0.16477191       0.29875342       1.18185722      -8.01992549      -0.64890868      -0.37987521       0.26829526
C       22.49845665      15.03035219       8.66890694  T      -0.01632250      -0.41647970      -1.02449979      -7.90198605       0.49858437       0.70574153      -1.76166996
C       25.04577423      14.98114166       8.58691273  T       0.68875303       0.13907690       0.76886480      -8.26410696      -0.63477026       1.16824826       0.30699470
C       16.16953744      14.97458845       9.38578738  T      -0.24257968       0.17122826       0.02583001      -8.36468853       0.56511132       0.61681539       0.22384060
C       18.74233910      14.99192157       9.35699785  T      -0.48242219       0.14899826      -0.43181280      -7.95242861      -0.06524994       0.40185153       0.63700514
C       21.23825612      15.05548336       9.34531956  T       0.43110161      -0.55938806      -0.21845346      -7.95307690       0.29467617      -0.95193679       0.08666672
C       23.77849133      15.06831860       9.37796199  T       0.30757448      -0.48753098       0.08211017      -7.76457236       0.12405532      -0.87144545      -0.31999756
C       26.21410755      15.00000000       9.35200935  F       0.00000000       0.00000000       0.00000000      -6.36979847      -1.26927228      -0.56454192       5.78263960
C       16.18062373      14.99185471      10.76457339  T      -0.57125072       0.54035807       0.09432511      -8.27531111      -1.51558789      -1.22058202      -0.08492268
C       18.75342275      14.96516207      10.80992311  T      -0.01499246      -0.35391683      -0.34475154      -7.80153621      -2.97862145      -0.61806160      -0.01180670
C       21.25742831      14.94500993      10.76228596  T      -0.49115603      -0.19450335       0.03446504      -7.90004268       0.05536437       0.76720134       2.43562625
C       23.78826318      15.05700397      10.86209779  T       0.13577380      -0.81606815      -0.17042675      -7.94412518       1.73172583      -0.32371665      -4.00558634
C       26.21410755      15.00000000      10.79078003  F       0.00000000       0.00000000       0.00000000      -6.37645391      -0.75699939       0.59256291      -7.78778100
C       15.00000000      15.00000000      11.51016536  F       0.00000000       0.00000000       0.00000000      -6.29431665       1.30738804       0.96336999       6.49239023
C       17.41397593      14.86694638      11.54797406  T      -0.36753022       0.63671664      -0.51150288      -7.82425507       1.91312441       0.99940738      -2.09839924
C       19.97871577      14.95422993      11.52116180  T      -0.42793501      -0.18732663       0.04767579      -7.88676211       1.10298595      -0.81287023       0.67450769
C       22.55809148      14.92195286      11.48755982  T       0.50139582      -0.45344594       0.67577271      -7.89978957      -3.84511911       0.22810884       1.67769398
C       25.06791259      15.05633970      11.52179069  T       0.35950922       0.42618724      -0.01153417      -8.34930932       0.24650940      -0.58671142       1.17182553
C       15.00000000      15.00000000      12.94893603  F       0.00000000       0.00000000       0.00000000      -6.32931319      -0.48514889      -1.20174099      -8.21552235
C       17.38743721      14.76355685      12.98471052  T       0.32213867       0.07478696       0.97529435      -7.95967539      -0.57989656      -0.16207862       0.15786333
C       19.91734533      14.85809060      12.98920352  T      -0.06008290      -0.20489948       0.88112454      -7.83719222       1.03799946       0.83145539      -0.34391181
C       22.47685848      14.87447802      12.93263478  T       0.68260063       0.21663289       1.40183387      -7.87654519       1.63513620       1.48109471       0.76606234
C       25.07740483      14.99655401      12.87197088  T      -0.03665523       0.29761942       0.54691751      -8.27005081      -0.18174395       0.28772368       2.19962257
C       16.10285663      14.80942781      13.69082247  T       0.06792270       1.04972672      -0.32764075      -8.30850074       1.07508484       1.41378131       2.74039165
C       18.61854656      14.74147505      13.70908533  T       0.63699692       0.46816458      -0.23078794      -7.95258296       2.37116537      -0.26041861      -0.93602073
C       21.23809662      14.95110403      13.68491750  T      -0.03687706      -0.17338558       0.33775469      -7.90308618      -1.55106190      -2.24501077      -0.65660314
C       23.78898243      14.95852538      13.63462534  T      -0.42954749      -1.08094910      -0.09591605      -7.79996578      -0.23312778      -0.31048210      -0.75046837
C       26.21410755      15.00000000      13.66832136  F       0.00000000       0.00000000       0.00000000      -6.42935578      -1.27765335       0.02660452       6.22499306
C       16.08978046      14.89404670      15.08167807  T      -0.16760767      -0.42427261      -0.69196105      -8.29286107       2.96119544      -0.95568272      -2.39879808
C       18.63737128      14.70611010      15.14027282  T       0.21209563      -1.08418337       0.12522849      -7.90152387       1.73870133       1.92674117      -0.42607377
C       21.22070266      14.89007484      15.13049513  T       0.64974779      -0.80873627      -0.28688699      -7.90939585       0.54118143       1.35458205      -0.38728019
C       23.79161917      15.00013652      15.07683152  T      -0.15540568      -0.24374357      -0.66538758      -7.91011148      -0.85334655      -0.92430754       1.80518949
C       26.21410755      15.00000000      15.10709203  F       0.00000000       0.00000000       0.00000000      -6.34047823      -1.55128411      -0.46839216      -6.57336726
C       15.00000000      15.00000000      15.82647737  F       0.00000000       0.00000000       0.00000000      -6.41002827      -1.17319373       0.21330308       8.92901149
C       17.38972765      14.82144059      15.82097766  T       0.06548317      -0.23601789      -0.52255851      -7.77597246      -1.03395694      -0.06893536       1.73159594
C       19.94217973      14.86736086      15.83152952  T       0.23440831       0.59326262      -0.32666150      -7.99904893      -0.58374471      -1.73732066      -1.44326985
C       22.51873056      14.97550842      15.83434569  T      -0.39454111      -0.60141007       0.06560644      -7.82713867      -0.47749642       0.20836521      -0.55199471
C       25.03537319      14.96892889      15.85551717  T      -0.08918541      -0.65021465      -0.86786137      -8.31132718       1.36951304       1.42596423       0.51283495
C       15.00000000      15.00000000      17.26524804  F       0.00000000       0.00000000       0.00000000      -6.48399844       0.81822812      -0.59257648      -6.69095985
C       17.41222318      14.88947162      17.32737666  T       0.07775515      -0.11394087      -0.76536742      -7.69980003       0.21585248      -1.42467806      -1.34376615
C       19.96130825      14.89408911      17.23042233  T      -0.71202612      -0.03127760       0.37260506      -8.04857904      -0.12899961       0.46899805       2.95067558
C       22.50527013      15.05061016      17.29239206  T      -0.28423376      -0.25393760      -0.26690318      -7.83658676       0.59477935      -0.43346420      -1.44806226
C       25.04349812      15.05141405      17.24394182  T      -0.84882736       0.17051885       0.15591716      -8.37910309       0.58086856      -1.06612539      -1.26380270
C       16.12460429      14.87980746      18.05623165  T       1.18471162       1.04539146      -0.64110627      -8.30886182       0.49766274       1.46524041      -2.24884573
C       18.73815031      14.85494097      18.01467531  T      -0.58251473       0.68822611       0.37279649      -7.82896469      -2.17715582       0.97994885      -0.99312158
C       21.20501789      15.00969979      17.94681870  T       0.31563121       0.51375025      -1.25092344      -7.91164714       2.06756578      -0.21154088       1.59685340
C       23.79642073      15.05632480      17.99751950  T       1.11966216      -0.51541108       0.98879718      -7.98235904      -1.41894775       0.03769338      -1.04148366
C       26.21410755      15.00000000      17.98463337  F       0.00000000       0.00000000       0.00000000      -6.33330512      -1.19925004       0.46293759       6.71167481
C       16.13827736      14.92683013      19.38875457  T       0.40505896      -0.54080442       0.27084726      -8.32883009      -0.45443754      -0.50677236       1.48011628
C       18.70298151      14.93233040      19.46685760  T      -0.29399970      -0.25512923      -0.15861640      -7.93310960       0.27643960      -0.60081171      -1.65728534
C       21.27870017      15.01568498      19.41862046  T      -1.28287697      -0.45415288       1.03922819      -7.84876768      -2.11931219      -0.46746745      -0.05084564
C       23.78309854      15.00245446      19.42080146  T       1.10225290      -0.44568582      -0.78278259      -7.84756254       0.83442722      -0.09947684       2.45859422
C       26.21410755      15.00000000      19.42340404  F       0.00000000       0.00000000       0.00000000      -6.35474702      -1.21928929      -0.12672128      -6.63348759
C       15.00000000      15.00000000      20.14278938  F       0.00000000       0.00000000       0.00000000      -6.37497772       0.62811868      -0.30581162       7.43042326
C       17.39412222      14.90302709      20.12907617  T      -0.21925529      -0.46561757      -0.07288857      -7.91641144       1.28042789       1.04718422       0.61852882
C       19.98265826      15.03317544      20.12804670  T      -0.42150281      -0.22277798      -1.58585728      -7.90125324       0.73485120      -0.13295804       0.69107705
C       22.52610016      14.96511008      20.17915549  T      -0.39762208      -0.30249682      -0.42976831      -7.93247128      -0.06897090       1.10282398      -2.05701438
C       25.06285126      15.02100563      20.19451105  T       0.20398778       0.21070307       0.13063134      -8.26159756       0.41323350       0.12626231      -2.27463829
C       15.00000000      15.00000000      21.58156005  F       0.00000000       0.00000000       0.00000000      -6.38785611       1.02538635       0.22990066      -6.73854745
C       17.41304762      15.01333447      21.59005754  T      -0.06773169       0.17176285       0.34489911      -7.78310311       0.78982041       0.19214260       0.34746574
C       20.01948606      15.11720223      21.55721422  T      -0.50924128       0.07445424      -0.22621414      -7.92365978      -1.36487410       1.09513005       1.16023188
C       22.52608440      15.07220499      21.61066149  T       0.08113702      -0.12627120       1.28154664      -7.95803925       0.05595699       0.48469551      -0.71214616
C       25.07341586      15.07849276      21.53303052  T       0.51246082      -0.71048143      -0.54143386      -8.37482693      -0.05669601      -0.63649566       1.77328165
C       16.14831156      15.00154309      22.35099006  T       0.06547948       0.21569848      -0.36832846      -8.35066308      -0.16537900       0.03883586      -0.92727108
C       18.73501618      15.13604448      22.28553561  T       0.80874738      -0.56514231       0.52021489      -7.80000576      -1.17949755      -1.83855533      -0.64864448
C       21.26161190      15.17820287      22.30480378  T       0.09584248      -0.16904942      -0.55744932      -7.99482639       0.05439826      -1.86746547      -0.97465387
C       23.80816909      15.11020702      22.27561025  T       0.30118691       0.86380221       0.29549576      -7.79202230      -0.28399490       0.19803159       2.24599880
C       26.21410755      15.00000000      22.30094538  F       0.00000000       0.00000000       0.00000000      -6.39881560      -1.02860673       0.27188041       6.82775666
C       16.14492640      15.00299869      23.70524197  T       0.60439441       0.31707344      -1.02767728      -8.34873447       0.45776299       0.29819503       0.72489580
C       18.70486973      15.02674025      23.73118162  T       0.33539242      -0.52811007       0.10494162      -7.78686663       0.45304035       1.81260462       0.27340120
C       21.22135893      15.07882262      23.72120559  T      -0.16586290      -0.39339953       0.07690278      -8.01387660       2.85491893       0.99062449       0.55126184
C       23.77560742      15.13278899      23.79685539  T      -0.43155386      -0.12343607       0.12451812      -7.85128816       0.68101351      -0.55575835      -3.07738326
C       26.21410755      15.00000000      23.73971605  F       0.00000000       0.00000000       0.00000000      -6.39190503      -1.91616080       0.62242845      -6.46137597
C       15.00000000      15.00000000      24.45910139  F       0.00000000       0.00000000       0.00000000      -6.35447912       0.61449892      -0.22375600       7.12884252
C       17.42286936      15.03455714      24.46406238  T      -0.73442237      -0.64733910      -0.45278714      -7.91555132       0.88045144      -0.91563494      -2.54520547
C       20.01116101      15.07684574      24.42289170  T      -0.00085790      -0.56296548      -0.41574678      -7.90216754      -3.17087401      -1.32678284       2.22103136
C       22.50486445      15.05675698      24.45703128  T      -0.10114970      -0.49352462       0.46936078      -7.90477892      -1.38691977       1.10551523      -2.24640608
C       25.04564534      15.10459253      24.50561267  T       0.09159656       0.51537340      -0.21869180      -8.27199072       1.82661749      -0.95958920      -1.96305971
C       15.00000000      15.00000000      25.89787206  F       0.00000000       0.00000000       0.00000000      -6.35095627       0.44359496       0.39724318      -7.56538371
C       17.46143853      15.01262144      25.87660088  T       0.48504973       0.46494729       0.06979069      -7.80987293      -1.15730136       0.95181910       2.90462889
C       19.95375369      15.00968912      25.90896057  T      -0.61688967      -0.42105359       0.71735866      -7.89841692       2.52878794       0.06180454      -1.71178037
C       22.47727442      15.07155649      25.84221433  T      -0.66051664      -0.15964114       0.04231547      -7.83619318       1.09431458      -1.66093716       3.77964673
C       25.06800095      15.03356782      25.84040657  T      -0.34096364      -0.60945838      -0.64128711      -8.29976410       0.19920609       0.61531702       2.25816952
C       16.14580959      15.04978179      26.63374542  T       0.00451631      -0.39176842      -0.01532929      -8.24381843       1.57710968      -1.01458562       1.56664081
C       18.74713606      15.04535151      26.61730020  T      -0.26458730      -0.36053192      -0.04246040      -7.98757127      -3.16722398      -0.40619400      -0.07986400
C       21.23333642      14.94365381      26.61058963  T       0.23169574       0.72132077      -0.12437197      -7.91788123       0.17431231       1.80499846      -0.52906724
C       23.78976913      15.06151683      26.55712517  T       0.53808310       0.22937312      -0.49823751      -7.73772683      -1.25462273       0.32200432       1.79536284
C       26.21410755      15.00000000      26.61725739  F       0.00000000       0.00000000       0.00000000      -6.42390344      -1.30357407      -0.08712335       6.31729912
C       16.15513618      15.04704205      28.02626993  T       0.12776677      -0.26256639      -0.00611302      -8.30000898       0.13013327       1.32066522      -1.54764913
C       18.69128716      15.08183550      28.06488701  T       0.45459075      -0.21490352      -0.49372615      -7.98649669       1.88934067       0.41691879      -0.50780384
C       21.23841280      14.98224360      28.05720910  T       0.65171700      -0.77433025      -0.34164919      -7.98896154       0.23138119      -1.09110825       0.11675790
C       23.76099870      15.06352904      28.07422968  T      -0.24815463       0.73177280       0.67412384      -7.85158296       0.82879712      -0.92232111      -1.92136891
C       26.21410755      15.00000000      28.05602806  F       0.00000000       0.00000000       0.00000000      -6.35404296      -1.40003516       0.29765702      -6.97970402
C       15.00000000      15.00000000      28.77541340  F       0.00000000       0.00000000       0.00000000      -6.40668314       1.27247459      -0.23449189       7.13914622
C       17.44569708      15.18079909      28.74762409  T      -0.96220637      -0.24917397       0.16283843      -7.92960107      -1.95770644      -1.43715921       0.57548027
C       19.97756641      15.00584393      28.78892562  T      -0.68687793       0.71415734       0.39120296      -7.94802546      -0.59851900       0.34858665      -1.40205985
C       22.50886926      14.94200626      28.77413700  T      -0.22477805      -0.06119384      -0.54519109      -7.97701116      -0.52031443       1.23376209       0.02636190
C       25.04102687      15.02819069      28.79122028  T       0.06591654       0.88450766      -0.09084597      -8.34148429       0.50517048      -0.74441401       1.94714704
C       15.00000000      15.00000000      30.21418407  F       0.00000000       0.00000000       0.00000000      -6.37874150       1.30922844       0.41189011      -6.10247758
C       17.39041239      15.13694815      30.20770180  T      -0.92909602      -0.39180242       0.41533112      -7.69402142       2.23926867      -1.33951542       1.34968072
C       19.96946897      14.97648551      30.20388370  T       0.27795222      -0.15925465      -0.99552896      -7.97368783       0.55597738      -0.37272076       1.77730940
C       22.50943462      14.91660341      30.21849394  T      -0.72603956      -0.02730163       0.09012615      -7.84853899       0.49693527      -0.37166437       0.93081343
C       25.05184647      14.90387228      30.18635956  T      -0.07319662       0.20735735       0.14399398      -8.31374326       0.70924231       0.75564170      -1.05518164
C       16.14829260      15.07617523      31.00601684  T       0.09123150       0.03638843       0.41063962      -8.32625750      -0.77770745      -0.14764749      -3.51028246
C       18.71505729      14.90802777      30.93060951  T       0.16881933      -0.29774728       0.58494405      -7.76379030      -1.48880904       2.02072870      -0.57786439
C       21.24178624      15.00700570      30.95100259  T       0.16603652      -1.01555070      -0.67378715      -7.93040733      -0.00636590      -0.74513342      -0.35496171
C       23.80753273      14.81748086      30.95607786  T       0.52261671       0.10885170       0.75858413      -7.82890122      -1.80139798       0.88980585      -1.02650221
C       26.21410755      15.00000000      30.93356940  F       0.00000000       0.00000000       0.00000000      -6.29617959      -1.04421905      -0.38753121       6.53674325
C       16.16102719      15.00506158      32.33428537  T      -0.59166567      -0.58575659      -0.43570077      -8.41785752      -1.58424624       0.24764235       2.20257213
C       18.69251223      14.89928790      32.37986635  T      -0.10071689       0.00857390       0.19795143      -7.78811865       0.78631218       0.35593338       0.49307935
C       21.25357112      14.99424060      32.40703865  T      -1.00121935      -1.23473277       0.32026391      -7.97327654      -0.19695338      -0.25724343      -1.01629375
C       23.77701830      14.85622024      32.41858672  T      -0.31352957      -0.03820677      -0.33010484      -7.93425811      -0.21676089      -0.32379507      -1.38603506
C       26.21410755      15.00000000      32.37234007  F       0.00000000       0.00000000       0.00000000      -6.37687120      -1.74168889      -0.57858349      -5.85983474
C       15.00000000      15.00000000      33.09172541  F       0.00000000       0.00000000       0.00000000      -6.26481298       1.29331011      -0.06336559       6.40274877
C       17.38995276      14.96959080      33.08491040  T      -0.48268486      -0.77320045      -0.19547131      -7.88541463       3.11606014      -0.35014831      -0.59898473
C       19.99714537      14.96303920      33.12742677  T      -0.10185760      -0.38983260      -0.07134103      -7.92940682      -1.63796371      -0.08538786      -2.20310363
C       22.51552041      14.94391822      33.11544938  T       0.13124642       0.44429366       0.29074717      -8.00129687      -0.48000471       0.15925136      -0.86513046
C       25.03382199      14.89456015      33.11740070  T      -0.01663775      -0.05236594       0.11209973      -8.26786434       0.85658845       1.32072516       2.43919200
C       15.00000000      15.00000000      34.53049608  F       0.00000000       0.00000000       0.00000000      -6.22725034       2.85998904      -0.01675595      -5.42358769
C       17.49202390      15.00000000      34.53049608  F       0.00000000       0.00000000       0.00000000      -7.93496870      -1.31688535      -0.16060900      -0.08458631
C       19.98404780      15.00000000      34.53049608  F       0.00000000       0.00000000       0.00000000      -7.95610202       0.00462885      -0.22517354       1.44900982
C       22.47607170      15.00000000      34.53049608  F       0.00000000       0.00000000       0.00000000      -7.93482186       0.45173528      -0.36955656       1.03499563
C       24.96809560      15.00000000      34.53049608  F       0.00000000       0.00000000       0.00000000      -8.23955972       3.92501029      -0.97046786      -1.72755389
C       16.24601195      15.00000000      35.24988141  F       0.00000000       0.00000000       0.00000000      -8.18775230      -3.06715617       0.06723281       3.03712341
C       18.73803585      15.00000000      35.24988141  F       0.00000000       0.00000000       0.00000000      -8.04851418       0.02026682       0.13662359      -0.45378327