200
Lattice="41.214107553959614 0.0 0.0 0.0 30.0 0.0 0.0 0.0 43.1631201" Properties=species:S:1:pos:R:3:move_mask:L:1:momenta:R:3:energies:R:1:forces:R:3 energy=-1533.7831020173671 free_energy=-1533.7831020173671 stress="0.0027498750309647066 0.0 -6.686150018807192e-18 0.0 0.0 0.0 -6.686150018807192e-18 0.0 -9.405873615558248e-05" pbc="T T T"
C       15.00000000      15.00000000       0.00000000  F       0.00000000       0.00000000       0.00000000      -6.15494457       2.94629247       0.00000000      -5.10372143
C       17.49202390      15.00000000       0.00000000  F       0.00000000       0.00000000       0.00000000      -7.97770185       0.00000000       0.00000000      -0.00000000
C       19.98404780      15.00000000       0.00000000  F       0.00000000       0.00000000       0.00000000      -7.97770185       0.00000000       0.00000000      -0.00000000
C       22.47607170      15.00000000       0.00000000  F       0.00000000       0.00000000       0.00000000      -7.97770185       0.00000000       0.00000000      -0.00000000
C       24.96809560      15.00000000       0.00000000  F       0.00000000       0.00000000       0.00000000      -8.25652741       2.94680618       0.00000000      -2.63708103
C       16.24601195      15.00000000       0.71938534  F       0.00000000       0.00000000       0.00000000      -8.25652741      -2.94680618       0.00000000       2.63708103
C       18.73803585      15.00000000       0.71938534  F       0.00000000       0.00000000       0.00000000      -7.97770185       0.00000000       0.00000000      -0.00000000
C       21.23005975      15.00000000       0.71938534  F       0.00000000       0.00000000       0.00000000      -7.97770185       0.00000000       0.00000000      -0.00000000
C       23.72208365      15.00000000       0.71938534  F       0.00000000       0.00000000       0.00000000      -7.97770185       0.00000000       0.00000000      -0.00000000
C       26.21410755      15.00000000       0.71938534  F       0.00000000       0.00000000       0.00000000      -6.15494457      -2.94629247       0.00000000       5.10372143
C       16.24601195      15.00000000       2.15815600  F       0.00000000       0.00000000       0.00000000      -8.25652741      -2.94680618       0.00000000      -2.63708103
C       18.73803585      15.00000000       2.15815600  F       0.00000000       0.00000000       0.00000000      -7.97770185       0.00000000       0.00000000       0.00000000
C       21.23005975      15.00000000       2.15815600  F       0.00000000       0.00000000       0.00000000      -7.97770185       0.00000000       0.00000000       0.00000000
C       23.72208365      15.00000000       2.15815600  F       0.00000000       0.00000000       0.00000000      -7.97770185       0.00000000       0.00000000       0.00000000
C       26.21410755      15.00000000       2.15815600  F       0.00000000       0.00000000       0.00000000      -6.15494457      -2.94629247       0.00000000      -5.10372143
C       15.00000000      15.00000000       2.87754134  F       0.00000000       0.00000000       0.00000000      -6.15494457       2.94629247       0.00000000       5.10372143
C       17.49202390      15.00000000       2.87754134  F       0.00000000       0.00000000       0.00000000      -7.97770185       0.00000000       0.00000000      -0.00000000
C       19.98404780      15.00000000       2.87754134  F       0.00000000       0.00000000       0.00000000      -7.97770185       0.00000000       0.00000000      -0.00000000
C       22.47607170      15.00000000       2.87754134  F       0.00000000       0.00000000       0.00000000      -7.97770185       0.00000000       0.00000000      -0.00000000
C       24.96809560      15.00000000       2.87754134  F       0.00000000       0.00000000       0.00000000      -8.25652741       2.94680618       0.00000000       2.63708103
C       15.00000000      15.00000000       4.31631201  F       0.00000000       0.00000000       0.00000000      -6.15494457       2.94629247       0.00000000      -5.10372143
C       17.49202390      15.00000000       4.31631201  F       0.00000000       0.00000000       0.00000000      -7.97770185       0.00000000       0.00000000       0.00000000
C       19.98404780      15.00000000       4.31631201  F       0.00000000       0.00000000       0.00000000      -7.97770185       0.00000000       0.00000000       0.00000000
C       22.47607170      15.00000000       4.31631201  F       0.00000000       0.00000000       0.00000000      -7.97770185       0.00000000       0.00000000       0.00000000
C       24.96809560      15.00000000       4.31631201  F       0.00000000       0.00000000       0.00000000      -8.25652741       2.94680618       0.00000000      -2.63708103
C       16.24601195      15.00000000       5.03569734  F       0.00000000       0.00000000       0.00000000      -8.25652741      -2.94680618       0.00000000       2.63708103
C       18.73803585      15.00000000       5.03569734  F       0.00000000       0.00000000       0.00000000      -7.97770185       0.00000000       0.00000000      -0.00000000
C       21.23005975      15.00000000       5.03569734  F       0.00000000       0.00000000       0.00000000      -7.97770185       0.00000000       0.00000000      -0.00000000
C       23.72208365      15.00000000       5.03569734  F       0.00000000       0.00000000       0.00000000      -7.97770185       0.00000000       0.00000000      -0.00000000
C       26.21410755      15.00000000       5.03569734  F       0.00000000       0.00000000       0.00000000      -6.15494457      -2.94629247       0.00000000       5.10372143
C       16.24601195      15.00000000       6.47446801  F       0.00000000       0.00000000       0.00000000      -8.25652741      -2.94680618       0.00000000      -2.63708103
C       18.73803585      15.00000000       6.47446801  F       0.00000000       0.00000000       0.00000000      -7.97770185       0.00000000       0.00000000       0.00000000
C       21.23005975      15.00000000       6.47446801  F       0.00000000       0.00000000       0.00000000      -7.97770185       0.00000000       0.00000000       0.00000000
C       23.72208365      15.00000000       6.47446801  F       0.00000000       0.00000000       0.00000000      -7.97770185       0.00000000       0.00000000       0.00000000
C       26.21410755      15.00000000       6.47446801  F       0.00000000       0.00000000       0.00000000      -6.15494457      -2.94629247       0.00000000      -5.10372143
C       15.00000000      15.00000000       7.19385335  F       0.00000000       0.00000000       0.00000000      -6.15494457       2.94629247       0.00000000       5.10372143
C       17.49202390      15.00000000       7.19385335  F       0.00000000       0.00000000       0.00000000      -7.97770185       0.00000000       0.00000000       0.00000000
C       19.98404780      15.00000000       7.19385335  F       0.00000000       0.00000000       0.00000000      -7.97770185       0.00000000       0.00000000       0.00000000
C       22.47607170      15.00000000       7.19385335  F       0.00000000       0.00000000       0.00000000      -7.97770185       0.00000000       0.00000000       0.00000000
C       24.96809560      15.00000000       7.19385335  F       0.00000000       0.00000000       0.00000000      -8.25652741       2.94680618       0.00000000       2.63708103
C       15.00000000      15.00000000       8.63262402  F       0.00000000       0.00000000       0.00000000      -6.15494457       2.94629247       0.00000000      -5.10372143
C       17.49202390      15.00000000       8.63262402  T      -0.27702386       0.49177359       0.38757221      -7.97770185       0.00000000       0.00000000      -0.00000000
C       19.98404780      15.00000000       8.63262402  T      -0.69577388       0.57284320       0.26342888      -7.97770185       0.00000000       0.00000000      -0.00000000
C       22.47607170      15.00000000       8.63262402  T      -0.60604574       0.01236453       0.11475790      -7.97770185       0.00000000       0.00000000      -0.00000000
C       24.96809560      15.00000000       8.63262402  T       0.38408659       0.24256955       0.35655255      -8.25652741       2.94680618       0.00000000      -2.63708103
C       16.24601195      15.00000000       9.35200935  T       0.65910857       0.10914954      -0.69934180      -8.25652741      -2.94680618       0.00000000       2.63708103
C       18.73803585      15.00000000       9.35200935  T       0.53377896       0.40889983      -1.01626841      -7.97770185       0.00000000       0.00000000       0.00000000
C       21.23005975      15.00000000       9.35200935  T      -0.49216725       0.31076154       0.38788203      -7.97770185       0.00000000       0.00000000       0.00000000
C       23.72208365      15.00000000       9.35200935  T      -0.78091340       0.00722332       0.61225798      -7.97770185       0.00000000       0.00000000       0.00000000
C       26.21410755      15.00000000       9.35200935  F       0.00000000       0.00000000       0.00000000      -6.15494457      -2.94629247       0.00000000       5.10372143
C       16.24601195      15.00000000      10.79078003  T       0.98082757      -0.05477370      -0.77323949      -8.25652741      -2.94680618       0.00000000      -2.63708103
C       18.73803585      15.00000000      10.79078003  T      -0.10985527      -0.12042592      -0.57776195      -7.97770185       0.00000000       0.00000000      -0.00000000
C       21.23005975      15.00000000      10.79078003  T      -0.54425437      -0.51468881      -0.37911898      -7.97770185       0.00000000       0.00000000      -0.00000000
C       23.72208365      15.00000000      10.79078003  T       0.21731587       0.30431266       0.68490675      -7.97770185       0.00000000       0.00000000      -0.00000000
C       26.21410755      15.00000000      10.79078003  F       0.00000000       0.00000000       0.00000000      -6.15494457      -2.94629247       0.00000000      -5.10372143
C       15.00000000      15.00000000      11.51016536  F       0.00000000       0.00000000       0.00000000      -6.15494457       2.94629247       0.00000000       5.10372143
C       17.49202390      15.00000000      11.51016536  T      -1.25997350       0.10628662       0.72614728      -7.97770185       0.00000000       0.00000000      -0.00000000
C       19.98404780      15.00000000      11.51016536  T       1.00978291       0.42864820      -0.00094594      -7.97770185       0.00000000       0.00000000      -0.00000000
C       22.47607170      15.00000000      11.51016536  T      -0.35306381      -0.69832027      -0.99812300      -7.97770185       0.00000000       0.00000000      -0.00000000
C       24.96809560      15.00000000      11.51016536  T      -0.21571502       0.83375081      -0.51364112      -8.25652741       2.94680618       0.00000000       2.63708103
C       15.00000000      15.00000000      12.94893603  F       0.00000000       0.00000000       0.00000000      -6.15494457       2.94629247       0.00000000      -5.10372143
C       17.49202390      15.00000000      12.94893603  T      -0.73660880      -0.18045939       1.10776452      -7.97770185       0.00000000       0.00000000       0.00000000
C       19.98404780      15.00000000      12.94893603  T      -0.19352218       0.22548047      -0.11989161      -7.97770185       0.00000000       0.00000000       0.00000000
C       22.47607170      15.00000000      12.94893603  T      -0.95620435      -0.68362915      -0.47079690      -7.97770185       0.00000000       0.00000000       0.00000000
C       24.96809560      15.00000000      12.94893603  T       0.71482077      -0.26487709       0.57221953      -8.25652741       2.94680618       0.00000000      -2.63708103
C       16.24601195      15.00000000      13.66832136  T       1.45125925       0.03911201      -0.10933660      -8.25652741      -2.94680618       0.00000000       2.63708103
C       18.73803585      15.00000000      13.66832136  T      -0.12441545      -0.86638813      -0.00468782      -7.97770185       0.00000000       0.00000000       0.00000000
C       21.23005975      15.00000000      13.66832136  T       0.61212765       0.31682441       0.09747178      -7.97770185       0.00000000       0.00000000       0.00000000
C       23.72208365      15.00000000      13.66832136  T       0.60207574       0.18269033       0.24062432      -7.97770185       0.00000000       0.00000000       0.00000000
C       26.21410755      15.00000000      13.66832136  F       0.00000000       0.00000000       0.00000000      -6.15494457      -2.94629247       0.00000000       5.10372143
C       16.24601195      15.00000000      15.10709203  T       0.21264469      -0.55538063      -0.12274206      -8.25652741      -2.94680618       0.00000000      -2.63708103
C       18.73803585      15.00000000      15.10709203  T       0.33927187       0.54327881       0.30605646      -7.97770185       0.00000000       0.00000000      -0.00000000
C       21.23005975      15.00000000      15.10709203  T       0.73466611      -0.93520705      -0.34263875      -7.97770185       0.00000000       0.00000000      -0.00000000
C       23.72208365      15.00000000      15.10709203  T      -0.27970852      -0.28662105      -1.16050599      -7.97770185       0.00000000       0.00000000      -0.00000000
C       26.21410755      15.00000000      15.10709203  F       0.00000000       0.00000000       0.00000000      -6.15494457      -2.94629247       0.00000000      -5.10372143
C       15.00000000      15.00000000      15.82647737  F       0.00000000       0.00000000       0.00000000      -6.15494457       2.94629247       0.00000000       5.10372143
C       17.49202390      15.00000000      15.82647737  T      -0.74357495       0.23574859       0.35744133      -7.97770185       0.00000000       0.00000000       0.00000000
C       19.98404780      15.00000000      15.82647737  T       0.03621631       1.00082481       1.38790160      -7.97770185       0.00000000       0.00000000       0.00000000
C       22.47607170      15.00000000      15.82647737  T      -0.37456784      -0.26933713       0.10090692      -7.97770185       0.00000000       0.00000000       0.00000000
C       24.96809560      15.00000000      15.82647737  T       0.71165417      -0.13783077       0.17798582      -8.25652741       2.94680618       0.00000000       2.63708103
C       15.00000000      15.00000000      17.26524804  F       0.00000000       0.00000000       0.00000000      -6.15494457       2.94629247       0.00000000      -5.10372143
C       17.49202390      15.00000000      17.26524804  T      -0.04522821       0.70265634      -0.76968220      -7.97770185       0.00000000       0.00000000      -0.00000000
C       19.98404780      15.00000000      17.26524804  T      -0.70309307       0.14854363      -0.90161928      -7.97770185       0.00000000       0.00000000      -0.00000000
C       22.47607170      15.00000000      17.26524804  T       0.17097557      -0.30051745       0.59354775      -7.97770185       0.00000000       0.00000000      -0.00000000
C       24.96809560      15.00000000      17.26524804  T       0.10967691      -0.80307179      -0.08836685      -8.25652741       2.94680618       0.00000000      -2.63708103
C       16.24601195      15.00000000      17.98463337  T      -0.33968147      -0.21540937       0.25443359      -8.25652741      -2.94680618       0.00000000       2.63708103
C       18.73803585      15.00000000      17.98463337  T       0.01426590      -0.08710105       0.66159690      -7.97770185       0.00000000       0.00000000       0.00000000
C       21.23005975      15.00000000      17.98463337  T      -0.68816435      -0.10634241      -0.71959155      -7.97770185       0.00000000       0.00000000       0.00000000
C       23.72208365      15.00000000      17.98463337  T      -0.38712258      -0.35768155      -1.47155014      -7.97770185       0.00000000       0.00000000       0.00000000
C       26.21410755      15.00000000      17.98463337  F       0.00000000       0.00000000       0.00000000      -6.15494457      -2.94629247       0.00000000       5.10372143
C       16.24601195      15.00000000      19.42340404  T       0.36020609      -0.14469510       0.04667975      -8.25652741      -2.94680618       0.00000000      -2.63708103
C       18.73803585      15.00000000      19.42340404  T       0.80892543       0.08685398      -0.58088783      -7.97770185       0.00000000       0.00000000       0.00000000
C       21.23005975      15.00000000      19.42340404  T       0.17581718       0.04608482      -0.89755073      -7.97770185       0.00000000       0.00000000       0.00000000
C       23.72208365      15.00000000      19.42340404  T      -1.68283948       0.58042198      -1.01800366      -7.97770185       0.00000000       0.00000000       0.00000000
C       26.21410755      15.00000000      19.42340404  F       0.00000000       0.00000000       0.00000000      -6.15494457      -2.94629247       0.00000000      -5.10372143
C       15.00000000      15.00000000      20.14278938  F       0.00000000       0.00000000       0.00000000      -6.15494457       2.94629247       0.00000000       5.10372143
C       17.49202390      15.00000000      20.14278938  T      -0.41663144       0.33288628       0.42292957      -7.97770185       0.00000000       0.00000000      -0.00000000
C       19.98404780      15.00000000      20.14278938  T       1.07107712       0.30504619      -0.17842455      -7.97770185       0.00000000       0.00000000      -0.00000000
C       22.47607170      15.00000000      20.14278938  T       0.13200786      -0.56356904      -0.03202180      -7.97770185       0.00000000       0.00000000      -0.00000000
C       24.96809560      15.00000000      20.14278938  T       0.00453346      -0.09893848       0.11453727      -8.25652741       2.94680618       0.00000000       2.63708103
C       15.00000000      15.00000000      21.58156005  F       0.00000000       0.00000000       0.00000000      -6.15494457       2.94629247       0.00000000      -5.10372143
C       17.49202390      15.00000000      21.58156005  T       0.51347107      -0.20775353      -0.33235823      -7.97770185       0.00000000       0.00000000      -0.00000000
C       19.98404780      15.00000000      21.58156005  T      -1.20910417       0.45984036      -0.12917424      -7.97770185       0.00000000       0.00000000      -0.00000000
C       22.47607170      15.00000000      21.58156005  T      -1.31613229      -0.24071372      -0.47137851      -7.97770185       0.00000000       0.00000000      -0.00000000
C       24.96809560      15.00000000      21.58156005  T       0.40851614       0.41772828      -0.76333998      -8.25652741       2.94680618       0.00000000      -2.63708103
C       16.24601195      15.00000000      22.30094538  T      -0.78381937       0.00884523       1.12656547      -8.25652741      -2.94680618       0.00000000       2.63708103
C       18.73803585      15.00000000      22.30094538  T      -0.21442186       0.31120682      -0.57994613      -7.97770185       0.00000000       0.00000000       0.00000000
C       21.23005975      15.00000000      22.30094538  T      -0.50778060       0.59897028       0.41423503      -7.97770185       0.00000000       0.00000000       0.00000000
C       23.72208365      15.00000000      22.30094538  T      -0.40841849       0.42225992      -1.01201747      -7.97770185       0.00000000       0.00000000       0.00000000
C       26.21410755      15.00000000      22.30094538  F       0.00000000       0.00000000       0.00000000      -6.15494457      -2.94629247       0.00000000       5.10372143
C       16.24601195      15.00000000      23.73971605  T      -0.62983302       0.08599703      -0.51958470      -8.25652741      -2.94680618       0.00000000      -2.63708103
C       18.73803585      15.00000000      23.73971605  T      -0.45528547      -0.92319341      -0.29667464      -7.97770185       0.00000000       0.00000000      -0.00000000
C       21.23005975      15.00000000      23.73971605  T       0.52612932       0.36746544       0.43370040      -7.97770185       0.00000000       0.00000000      -0.00000000
C       23.72208365      15.00000000      23.73971605  T      -0.57125530      -0.28003595      -0.33010180      -7.97770185       0.00000000       0.00000000      -0.00000000
C       26.21410755      15.00000000      23.73971605  F       0.00000000       0.00000000       0.00000000      -6.15494457      -2.94629247       0.00000000      -5.10372143
C       15.00000000      15.00000000      24.45910139  F       0.00000000       0.00000000       0.00000000      -6.15494457       2.94629247       0.00000000       5.10372143
C       17.49202390      15.00000000      24.45910139  T       0.26458643      -0.17332442      -0.01771607      -7.97770185       0.00000000       0.00000000      -0.00000000
C       19.98404780      15.00000000      24.45910139  T       1.00089052      -0.66724329       0.25360864      -7.97770185       0.00000000       0.00000000      -0.00000000
C       22.47607170      15.00000000      24.45910139  T       0.11828493       0.61215331      -0.62275464      -7.97770185       0.00000000       0.00000000      -0.00000000
C       24.96809560      15.00000000      24.45910139  T       0.47046147       0.23100752       0.27464219      -8.25652741       2.94680618       0.00000000       2.63708103
C       15.00000000      15.00000000      25.89787206  F       0.00000000       0.00000000       0.00000000      -6.15494457       2.94629247       0.00000000      -5.10372143
C       17.49202390      15.00000000      25.89787206  T      -0.67499592      -0.68904432      -0.09209667      -7.97770185       0.00000000       0.00000000       0.00000000
C       19.98404780      15.00000000      25.89787206  T       0.25003943       0.39225854       0.14302856      -7.97770185       0.00000000       0.00000000       0.00000000
C       22.47607170      15.00000000      25.89787206  T      -0.92594660       0.05976259       0.64602690      -7.97770185       0.00000000       0.00000000       0.00000000
C       24.96809560      15.00000000      25.89787206  T       0.04213389      -0.18075241       0.34488444      -8.25652741       2.94680618       0.00000000      -2.63708103
C       16.24601195      15.00000000      26.61725739  T      -0.10140705       0.10436321       0.21792368      -8.25652741      -2.94680618       0.00000000       2.63708103
C       18.73803585      15.00000000      26.61725739  T       0.02041281      -0.31892917      -0.03126697      -7.97770185       0.00000000       0.00000000       0.00000000
C       21.23005975      15.00000000      26.61725739  T      -0.31661637       0.10140631       0.16791466      -7.97770185       0.00000000       0.00000000       0.00000000
C       23.72208365      15.00000000      26.61725739  T      -0.54504433       0.61788110      -0.66592490      -7.97770185       0.00000000       0.00000000       0.00000000
C       26.21410755      15.00000000      26.61725739  F       0.00000000       0.00000000       0.00000000      -6.15494457      -2.94629247       0.00000000       5.10372143
C       16.24601195      15.00000000      28.05602806  T       0.18919764      -0.20982536      -1.17299615      -8.25652741      -2.94680618       0.00000000      -2.63708103
C       18.73803585      15.00000000      28.05602806  T       0.33325113      -0.39571131       1.09204766      -7.97770185       0.00000000       0.00000000       0.00000000
C       21.23005975      15.00000000      28.05602806  T       0.19865600       0.70511843      -0.73403611      -7.97770185       0.00000000       0.00000000       0.00000000
C       23.72208365      15.00000000      28.05602806  T      -0.74176344       0.07534073      -0.17827802      -7.97770185       0.00000000       0.00000000       0.00000000
C       26.21410755      15.00000000      28.05602806  F       0.00000000       0.00000000       0.00000000      -6.15494457      -2.94629247       0.00000000      -5.10372143
C       15.00000000      15.00000000      28.77541340  F       0.00000000       0.00000000       0.00000000      -6.15494457       2.94629247       0.00000000       5.10372143
C       17.49202390      15.00000000      28.77541340  T       0.35201560      -0.80338191       0.58959644      -7.97770185       0.00000000       0.00000000      -0.00000000
C       19.98404780      15.00000000      28.77541340  T       0.49654462       0.06572055       0.45553867      -7.97770185       0.00000000       0.00000000      -0.00000000
C       22.47607170      15.00000000      28.77541340  T       0.44734908       0.47507481      -0.14555101      -7.97770185       0.00000000       0.00000000      -0.00000000
C       24.96809560      15.00000000      28.77541340  T       0.17044771       0.31075416      -0.27723274      -8.25652741       2.94680618       0.00000000       2.63708103
C       15.00000000      15.00000000      30.21418407  F       0.00000000       0.00000000       0.00000000      -6.15494457       2.94629247       0.00000000      -5.10372143
C       17.49202390      15.00000000      30.21418407  T       0.48769915       1.31077905       0.17057035      -7.97770185       0.00000000       0.00000000      -0.00000000
C       19.98404780      15.00000000      30.21418407  T      -0.12065480      -0.88343061       0.41175141      -7.97770185       0.00000000       0.00000000      -0.00000000
C       22.47607170      15.00000000      30.21418407  T       0.11161498      -0.36539097       0.51063617      -7.97770185       0.00000000       0.00000000      -0.00000000
C       24.96809560      15.00000000      30.21418407  T       0.90893648       0.12062648       0.60782054      -8.25652741       2.94680618       0.00000000      -2.63708103
C       16.24601195      15.00000000      30.93356940  T      -0.00832358       0.41432379       0.39109233      -8.25652741      -2.94680618       0.00000000       2.63708103
C       18.73803585      15.00000000      30.93356940  T       0.29865762      -0.09211379      -0.29343746      -7.97770185       0.00000000       0.00000000       0.00000000
C       21.23005975      15.00000000      30.93356940  T      -0.12865744       0.51159219       1.07306399      -7.97770185       0.00000000       0.00000000       0.00000000
C       23.72208365      15.00000000      30.93356940  T      -0.43180208       1.07349140       0.87242358      -7.97770185       0.00000000       0.00000000       0.00000000
C       26.21410755      15.00000000      30.93356940  F       0.00000000       0.00000000       0.00000000      -6.15494457      -2.94629247       0.00000000       5.10372143
C       16.24601195      15.00000000      32.37234007  T       0.78881731      -0.01088072       0.73139317      -8.25652741      -2.94680618       0.00000000      -2.63708103
C       18.73803585      15.00000000      32.37234007  T       0.17274200       0.06688466       0.99418006      -7.97770185       0.00000000       0.00000000      -0.00000000
C       21.23005975      15.00000000      32.37234007  T      -0.12628122      -0.23401226      -1.15613066      -7.97770185       0.00000000       0.00000000      -0.00000000
C       23.72208365      15.00000000      32.37234007  T      -0.93479497      -0.49886674      -0.61271901      -7.97770185       0.00000000       0.00000000      -0.00000000
C       26.21410755      15.00000000      32.37234007  F       0.00000000       0.00000000       0.00000000      -6.15494457      -2.94629247       0.00000000      -5.10372143
C       15.00000000      15.00000000      33.09172541  F       0.00000000       0.00000000       0.00000000      -6.15494457       2.94629247       0.00000000       5.10372143
C       17.49202390      15.00000000      33.09172541  T       0.51927711       0.45690830       0.14647137      -7.97770185       0.00000000       0.00000000       0.00000000
C       19.98404780      15.00000000      33.09172541  T       0.21464446      -0.65492547      -0.48113798      -7.97770185       0.00000000       0.00000000       0.00000000
C       22.47607170      15.00000000      33.09172541  T      -0.36905001       0.52256899       0.99087604      -7.97770185       0.00000000       0.00000000       0.00000000
C       24.96809560      15.00000000      33.09172541  T       1.31343255       0.51241963      -0.79030470      -8.25652741       2.94680618       0.00000000       2.63708103
C       15.00000000      15.00000000      34.53049608  F       0.00000000       0.00000000       0.00000000      -6.15494457       2.94629247       0.00000000      -5.10372143
C       17.49202390      15.00000000      34.53049608  F       0.00000000       0.00000000       0.00000000      -7.97770185       0.00000000       0.00000000      -0.00000000
C       19.98404780      15.00000000      34.53049608  F       0.00000000       0.00000000       0.00000000      -7.97770185       0.00000000       0.00000000      -0.00000000
C       22.47607170      15.00000000      34.53049608  F       0.00000000       0.00000000       0.00000000      -7.97770185       0.00000000       0.00000000      -0.00000000
C       24.96809560      15.00000000      34.53049608  F       0.00000000       0.00000000       0.00000000      -8.25652741       2.94680618       0.00000000      -2.63708103
C       16.24601195      15.00000000      35.24988141  F       0.00000000       0.00000000       0.00000000      -8.25652741      -2.94680618       0.00000000       2.63708103
C       18.73803585      15.00000000      35.24988141  F       0.00000000       0.00000000       0.00000000      -7.97770185       0.00000000       0.00000000       0.00000000
C       21.23005975      15.00000000      35.24988141  F       0.00000000       0.00000000       0.00000000      -7.97770185       0.00000000       0.00000000       0.00000000