300
Lattice="41.214107553959614 0.0 0.0 0.0 30.0 0.0 0.0 0.0 64.74468015" Properties=species:S:1:pos:R:3:move_mask:L:1:momenta:R:3:energies:R:1:forces:R:3 energy=-2300.6746530260507 free_energy=-2300.6746530260507 stress="0.0027498750309647717 0.0 -4.5628362501297735e-18 0.0 0.0 0.0 -4.5628362501297735e-18 0.0 -9.405873615559952e-05" pbc="T T T"
C       15.00000000      15.00000000       0.00000000  F       0.00000000       0.00000000       0.00000000      -6.15494457       2.94629247       0.00000000      -5.10372143
C       17.49202390      15.00000000       0.00000000  F       0.00000000       0.00000000       0.00000000      -7.97770185       0.00000000       0.00000000       0.00000000
C       19.98404780      15.00000000       0.00000000  F       0.00000000       0.00000000       0.00000000      -7.97770185       0.00000000       0.00000000       0.00000000
C       22.47607170      15.00000000       0.00000000  F       0.00000000       0.00000000       0.00000000      -7.97770185       0.00000000       0.00000000       0.00000000
C       24.96809560      15.00000000       0.00000000  F       0.00000000       0.00000000       0.00000000      -8.25652741       2.94680618       0.00000000      -2.63708103
C       16.24601195      15.00000000       0.71938534  F       0.00000000       0.00000000       0.00000000      -8.25652741      -2.94680618       0.00000000       2.63708103
C       18.73803585      15.00000000       0.71938534  F       0.00000000       0.00000000       0.00000000      -7.97770185       0.00000000       0.00000000       0.00000000
C       21.23005975      15.00000000       0.71938534  F       0.00000000       0.00000000       0.00000000      -7.97770185       0.00000000       0.00000000       0.00000000
C       23.72208365      15.00000000       0.71938534  F       0.00000000       0.00000000       0.00000000      -7.97770185       0.00000000       0.00000000       0.00000000
C       26.21410755      15.00000000       0.71938534  F       0.00000000       0.00000000       0.00000000      -6.15494457      -2.94629247       0.00000000       5.10372143
C       16.24601195      15.00000000       2.15815600  F       0.00000000       0.00000000       0.00000000      -8.25652741      -2.94680618       0.00000000      -2.63708103
C       18.73803585      15.00000000       2.15815600  F       0.00000000       0.00000000       0.00000000      -7.97770185       0.00000000       0.00000000       0.00000000
C       21.23005975      15.00000000       2.15815600  F       0.00000000       0.00000000       0.00000000      -7.97770185       0.00000000       0.00000000       0.00000000
C       23.72208365      15.00000000       2.15815600  F       0.00000000       0.00000000       0.00000000      -7.97770185       0.00000000       0.00000000       0.00000000
C       26.21410755      15.00000000       2.15815600  F       0.00000000       0.00000000       0.00000000      -6.15494457      -2.94629247       0.00000000      -5.10372143
C       15.00000000      15.00000000       2.87754134  F       0.00000000       0.00000000       0.00000000      -6.15494457       2.94629247       0.00000000       5.10372143
C       17.49202390      15.00000000       2.87754134  F       0.00000000       0.00000000       0.00000000      -7.97770185       0.00000000       0.00000000      -0.00000000
C       19.98404780      15.00000000       2.87754134  F       0.00000000       0.00000000       0.00000000      -7.97770185       0.00000000       0.00000000      -0.00000000
C       22.47607170      15.00000000       2.87754134  F       0.00000000       0.00000000       0.00000000      -7.97770185       0.00000000       0.00000000      -0.00000000
C       24.96809560      15.00000000       2.87754134  F       0.00000000       0.00000000       0.00000000      -8.25652741       2.94680618       0.00000000       2.63708103
C       15.00000000      15.00000000       4.31631201  F       0.00000000       0.00000000       0.00000000      -6.15494457       2.94629247       0.00000000      -5.10372143
C       17.49202390      15.00000000       4.31631201  F       0.00000000       0.00000000       0.00000000      -7.97770185       0.00000000       0.00000000       0.00000000
C       19.98404780      15.00000000       4.31631201  F       0.00000000       0.00000000       0.00000000      -7.97770185       0.00000000       0.00000000       0.00000000
C       22.47607170      15.00000000       4.31631201  F       0.00000000       0.00000000       0.00000000      -7.97770185       0.00000000       0.00000000       0.00000000
C       24.96809560      15.00000000       4.31631201  F       0.00000000       0.00000000       0.00000000      -8.25652741       2.94680618       0.00000000      -2.63708103
C       16.24601195      15.00000000       5.03569734  F       0.00000000       0.00000000       0.00000000      -8.25652741      -2.94680618       0.00000000       2.63708103
C       18.73803585      15.00000000       5.03569734  F       0.00000000       0.00000000       0.00000000      -7.97770185       0.00000000       0.00000000      -0.00000000
C       21.23005975      15.00000000       5.03569734  F       0.00000000       0.00000000       0.00000000      -7.97770185       0.00000000       0.00000000      -0.00000000
C       23.72208365      15.00000000       5.03569734  F       0.00000000       0.00000000       0.00000000      -7.97770185       0.00000000       0.00000000      -0.00000000
C       26.21410755      15.00000000       5.03569734  F       0.00000000       0.00000000       0.00000000      -6.15494457      -2.94629247       0.00000000       5.10372143
C       16.24601195      15.00000000       6.47446801  F       0.00000000       0.00000000       0.00000000      -8.25652741      -2.94680618       0.00000000      -2.63708103
C       18.73803585      15.00000000       6.47446801  F       0.00000000       0.00000000       0.00000000      -7.97770185       0.00000000       0.00000000       0.00000000
C       21.23005975      15.00000000       6.47446801  F       0.00000000       0.00000000       0.00000000      -7.97770185       0.00000000       0.00000000       0.00000000
C       23.72208365      15.00000000       6.47446801  F       0.00000000       0.00000000       0.00000000      -7.97770185       0.00000000       0.00000000       0.00000000
C       26.21410755      15.00000000       6.47446801  F       0.00000000       0.00000000       0.00000000      -6.15494457      -2.94629247       0.00000000      -5.10372143
C       15.00000000      15.00000000       7.19385335  F       0.00000000       0.00000000       0.00000000      -6.15494457       2.94629247       0.00000000       5.10372143
C       17.49202390      15.00000000       7.19385335  F       0.00000000       0.00000000       0.00000000      -7.97770185       0.00000000       0.00000000       0.00000000
C       19.98404780      15.00000000       7.19385335  F       0.00000000       0.00000000       0.00000000      -7.97770185       0.00000000       0.00000000       0.00000000
C       22.47607170      15.00000000       7.19385335  F       0.00000000       0.00000000       0.00000000      -7.97770185       0.00000000       0.00000000       0.00000000
C       24.96809560      15.00000000       7.19385335  F       0.00000000       0.00000000       0.00000000      -8.25652741       2.94680618       0.00000000       2.63708103
C       15.00000000      15.00000000       8.63262402  F       0.00000000       0.00000000       0.00000000      -6.15494457       2.94629247       0.00000000      -5.10372143
C       17.49202390      15.00000000       8.63262402  T      -0.34368151      -0.57313865       0.46671171      -7.97770185       0.00000000       0.00000000      -0.00000000
C       19.98404780      15.00000000       8.63262402  T      -1.29225409      -0.02634483       0.09910127      -7.97770185       0.00000000       0.00000000      -0.00000000
C       22.47607170      15.00000000       8.63262402  T       0.22824632       0.56647615       0.25193950      -7.97770185       0.00000000       0.00000000      -0.00000000
C       24.96809560      15.00000000       8.63262402  T      -0.44040624      -0.18444078      -0.14470583      -8.25652741       2.94680618       0.00000000      -2.63708103
C       16.24601195      15.00000000       9.35200935  T      -0.09846229       0.49505090       0.59998835      -8.25652741      -2.94680618       0.00000000       2.63708103
C       18.73803585      15.00000000       9.35200935  T      -0.54808650      -0.36682217      -0.40003615      -7.97770185       0.00000000       0.00000000       0.00000000
C       21.23005975      15.00000000       9.35200935  T      -0.56916994       0.85551921       0.08280537      -7.97770185       0.00000000       0.00000000       0.00000000
C       23.72208365      15.00000000       9.35200935  T      -0.00121657       1.07363273      -0.11966274      -7.97770185       0.00000000       0.00000000       0.00000000
C       26.21410755      15.00000000       9.35200935  F       0.00000000       0.00000000       0.00000000      -6.15494457      -2.94629247       0.00000000       5.10372143
C       16.24601195      15.00000000      10.79078003  T       0.52140824       0.65554788       0.20580264      -8.25652741      -2.94680618       0.00000000      -2.63708103
C       18.73803585      15.00000000      10.79078003  T      -0.04627806       0.55980573       0.16928942      -7.97770185       0.00000000       0.00000000      -0.00000000
C       21.23005975      15.00000000      10.79078003  T       0.81518697       0.19097037       0.76683206      -7.97770185       0.00000000       0.00000000      -0.00000000
C       23.72208365      15.00000000      10.79078003  T      -0.56709267       0.03659490      -0.14956422      -7.97770185       0.00000000       0.00000000      -0.00000000
C       26.21410755      15.00000000      10.79078003  F       0.00000000       0.00000000       0.00000000      -6.15494457      -2.94629247       0.00000000      -5.10372143
C       15.00000000      15.00000000      11.51016536  F       0.00000000       0.00000000       0.00000000      -6.15494457       2.94629247       0.00000000       5.10372143
C       17.49202390      15.00000000      11.51016536  T       0.24993363      -0.74240799       1.05874542      -7.97770185       0.00000000       0.00000000      -0.00000000
C       19.98404780      15.00000000      11.51016536  T      -0.65898557      -0.63471687      -0.35219907      -7.97770185       0.00000000       0.00000000      -0.00000000
C       22.47607170      15.00000000      11.51016536  T       0.84601832       0.60581849       0.58308367      -7.97770185       0.00000000       0.00000000      -0.00000000
C       24.96809560      15.00000000      11.51016536  T       0.19303476      -0.59958481      -0.51716911      -8.25652741       2.94680618       0.00000000       2.63708103
C       15.00000000      15.00000000      12.94893603  F       0.00000000       0.00000000       0.00000000      -6.15494457       2.94629247       0.00000000      -5.10372143
C       17.49202390      15.00000000      12.94893603  T      -0.55386865      -0.25743191      -0.82913775      -7.97770185       0.00000000       0.00000000       0.00000000
C       19.98404780      15.00000000      12.94893603  T      -0.05761236      -0.21260251       1.01055055      -7.97770185       0.00000000       0.00000000       0.00000000
C       22.47607170      15.00000000      12.94893603  T      -0.52909875      -0.39336172      -0.49160016      -7.97770185       0.00000000       0.00000000       0.00000000
C       24.96809560      15.00000000      12.94893603  T      -0.91462022      -0.37574375      -0.57220040      -8.25652741       2.94680618       0.00000000      -2.63708103
C       16.24601195      15.00000000      13.66832136  T      -0.66808571      -0.04101464      -0.65855475      -8.25652741      -2.94680618       0.00000000       2.63708103
C       18.73803585      15.00000000      13.66832136  T      -0.80941263       0.21613938      -0.30444914      -7.97770185       0.00000000       0.00000000       0.00000000
C       21.23005975      15.00000000      13.66832136  T      -0.34805502      -0.82033864      -0.29119768      -7.97770185       0.00000000       0.00000000       0.00000000
C       23.72208365      15.00000000      13.66832136  T      -0.01593513       0.11965408      -0.23998376      -7.97770185       0.00000000       0.00000000       0.00000000
C       26.21410755      15.00000000      13.66832136  F       0.00000000       0.00000000       0.00000000      -6.15494457      -2.94629247       0.00000000       5.10372143
C       16.24601195      15.00000000      15.10709203  T      -0.52567553       0.23332243       0.49857659      -8.25652741      -2.94680618       0.00000000      -2.63708103
C       18.73803585      15.00000000      15.10709203  T       1.03121363      -0.13382835       0.14323161      -7.97770185       0.00000000       0.00000000      -0.00000000
C       21.23005975      15.00000000      15.10709203  T       0.60760524      -0.29478273       0.00836136      -7.97770185       0.00000000       0.00000000      -0.00000000
C       23.72208365      15.00000000      15.10709203  T      -0.47392730      -0.46267802      -1.22173123      -7.97770185       0.00000000       0.00000000      -0.00000000
C       26.21410755      15.00000000      15.10709203  F       0.00000000       0.00000000       0.00000000      -6.15494457      -2.94629247       0.00000000      -5.10372143
C       15.00000000      15.00000000      15.82647737  F       0.00000000       0.00000000       0.00000000      -6.15494457       2.94629247       0.00000000       5.10372143
C       17.49202390      15.00000000      15.82647737  T      -0.43793123      -1.12867229      -0.10288383      -7.97770185       0.00000000       0.00000000       0.00000000
C       19.98404780      15.00000000      15.82647737  T      -0.99594832      -0.09277300       0.31338710      -7.97770185       0.00000000       0.00000000       0.00000000
C       22.47607170      15.00000000      15.82647737  T       0.22318435      -0.47848345       0.33409612      -7.97770185       0.00000000       0.00000000       0.00000000
C       24.96809560      15.00000000      15.82647737  T      -0.24896589       0.31970094      -0.20186571      -8.25652741       2.94680618       0.00000000       2.63708103
C       15.00000000      15.00000000      17.26524804  F       0.00000000       0.00000000       0.00000000      -6.15494457       2.94629247       0.00000000      -5.10372143
C       17.49202390      15.00000000      17.26524804  T      -0.08575973      -0.24036182       0.45151678      -7.97770185       0.00000000       0.00000000      -0.00000000
C       19.98404780      15.00000000      17.26524804  T       0.79429338       0.87740188       0.21237742      -7.97770185       0.00000000       0.00000000      -0.00000000
C       22.47607170      15.00000000      17.26524804  T       0.89045153       0.04581652      -0.66380776      -7.97770185       0.00000000       0.00000000      -0.00000000
C       24.96809560      15.00000000      17.26524804  T       0.46589122      -0.29054621      -0.63231009      -8.25652741       2.94680618       0.00000000      -2.63708103
C       16.24601195      15.00000000      17.98463337  T       0.53056168      -0.31118090       0.58168413      -8.25652741      -2.94680618       0.00000000       2.63708103
C       18.73803585      15.00000000      17.98463337  T      -0.38319719      -0.90448944       0.90514429      -7.97770185       0.00000000       0.00000000       0.00000000
C       21.23005975      15.00000000      17.98463337  T       0.47315098      -0.51890171      -0.13533398      -7.97770185       0.00000000       0.00000000       0.00000000
C       23.72208365      15.00000000      17.98463337  T      -0.48845613      -0.07393935      -0.20922959      -7.97770185       0.00000000       0.00000000       0.00000000
C       26.21410755      15.00000000      17.98463337  F       0.00000000       0.00000000       0.00000000      -6.15494457      -2.94629247       0.00000000       5.10372143
C       16.24601195      15.00000000      19.42340404  T      -0.29462444       0.88174063       0.56671241      -8.25652741      -2.94680618       0.00000000      -2.63708103
C       18.73803585      15.00000000      19.42340404  T       0.25478142      -0.32356625      -0.42698610      -7.97770185       0.00000000       0.00000000       0.00000000
C       21.23005975      15.00000000      19.42340404  T      -0.37689086       0.18418953       0.25773995      -7.97770185       0.00000000       0.00000000       0.00000000
C       23.72208365      15.00000000      19.42340404  T       0.80650351      -0.39487169      -0.90571419      -7.97770185       0.00000000       0.00000000       0.00000000
C       26.21410755      15.00000000      19.42340404  F       0.00000000       0.00000000       0.00000000      -6.15494457      -2.94629247       0.00000000      -5.10372143
C       15.00000000      15.00000000      20.14278938  F       0.00000000       0.00000000       0.00000000      -6.15494457       2.94629247       0.00000000       5.10372143
C       17.49202390      15.00000000      20.14278938  T       0.09847456      -0.28770263       0.15326707      -7.97770185       0.00000000       0.00000000      -0.00000000
C       19.98404780      15.00000000      20.14278938  T      -0.43063185      -1.17258820      -0.41721414      -7.97770185       0.00000000       0.00000000      -0.00000000
C       22.47607170      15.00000000      20.14278938  T      -0.35415208      -0.41105231      -0.10950165      -7.97770185       0.00000000       0.00000000      -0.00000000
C       24.96809560      15.00000000      20.14278938  T      -1.33546803      -1.22597749      -0.44387599      -8.25652741       2.94680618       0.00000000       2.63708103
C       15.00000000      15.00000000      21.58156005  F       0.00000000       0.00000000       0.00000000      -6.15494457       2.94629247       0.00000000      -5.10372143
C       17.49202390      15.00000000      21.58156005  T      -0.13917863       0.22608971       0.69264246      -7.97770185       0.00000000       0.00000000      -0.00000000
C       19.98404780      15.00000000      21.58156005  T      -0.17935662      -0.32600134      -0.12448985      -7.97770185       0.00000000       0.00000000      -0.00000000
C       22.47607170      15.00000000      21.58156005  T      -0.85354036       0.52006777       0.12081957      -7.97770185       0.00000000       0.00000000      -0.00000000
C       24.96809560      15.00000000      21.58156005  T       0.65446409       0.71008602       0.28033466      -8.25652741       2.94680618       0.00000000      -2.63708103
C       16.24601195      15.00000000      22.30094538  T       1.12659398      -0.30484473      -0.22069780      -8.25652741      -2.94680618       0.00000000       2.63708103
C       18.73803585      15.00000000      22.30094538  T       0.41637260      -0.18312252       0.28971187      -7.97770185       0.00000000       0.00000000       0.00000000
C       21.23005975      15.00000000      22.30094538  T      -0.21936289       0.25331916      -0.63261400      -7.97770185       0.00000000       0.00000000       0.00000000
C       23.72208365      15.00000000      22.30094538  T      -1.27606977       0.00081998      -1.18980157      -7.97770185       0.00000000       0.00000000       0.00000000
C       26.21410755      15.00000000      22.30094538  F       0.00000000       0.00000000       0.00000000      -6.15494457      -2.94629247       0.00000000       5.10372143
C       16.24601195      15.00000000      23.73971605  T      -0.04215436      -0.08975315       0.56296726      -8.25652741      -2.94680618       0.00000000      -2.63708103
C       18.73803585      15.00000000      23.73971605  T       0.72892145      -0.52715077       0.12704604      -7.97770185       0.00000000       0.00000000      -0.00000000
C       21.23005975      15.00000000      23.73971605  T      -0.41450832       0.11400356       0.59384568      -7.97770185       0.00000000       0.00000000      -0.00000000
C       23.72208365      15.00000000      23.73971605  T      -0.53451550       0.70648165       0.88013802      -7.97770185       0.00000000       0.00000000      -0.00000000
C       26.21410755      15.00000000      23.73971605  F       0.00000000       0.00000000       0.00000000      -6.15494457      -2.94629247       0.00000000      -5.10372143
C       15.00000000      15.00000000      24.45910139  F       0.00000000       0.00000000       0.00000000      -6.15494457       2.94629247       0.00000000       5.10372143
C       17.49202390      15.00000000      24.45910139  T       0.28397852      -0.33521289       0.27810511      -7.97770185       0.00000000       0.00000000      -0.00000000
C       19.98404780      15.00000000      24.45910139  T       0.35612166       0.00820189       0.56592843      -7.97770185       0.00000000       0.00000000      -0.00000000
C       22.47607170      15.00000000      24.45910139  T      -0.28852807       0.27787155      -0.43907842      -7.97770185       0.00000000       0.00000000      -0.00000000
C       24.96809560      15.00000000      24.45910139  T       0.87719548      -0.07618414       1.03315829      -8.25652741       2.94680618       0.00000000       2.63708103
C       15.00000000      15.00000000      25.89787206  F       0.00000000       0.00000000       0.00000000      -6.15494457       2.94629247       0.00000000      -5.10372143
C       17.49202390      15.00000000      25.89787206  T       0.24794667      -0.24188439      -0.16069082      -7.97770185       0.00000000       0.00000000       0.00000000
C       19.98404780      15.00000000      25.89787206  T      -0.25215836       0.51721051       0.27701063      -7.97770185       0.00000000       0.00000000       0.00000000
C       22.47607170      15.00000000      25.89787206  T      -0.45197546       0.30964279      -0.58361954      -7.97770185       0.00000000       0.00000000       0.00000000
C       24.96809560      15.00000000      25.89787206  T       0.21994105      -0.52680953      -0.13837435      -8.25652741       2.94680618       0.00000000      -2.63708103
C       16.24601195      15.00000000      26.61725739  T      -1.89420108      -0.22002447       0.37938721      -8.25652741      -2.94680618       0.00000000       2.63708103
C       18.73803585      15.00000000      26.61725739  T       0.22791834       0.08182909       1.30853692      -7.97770185       0.00000000       0.00000000       0.00000000
C       21.23005975      15.00000000      26.61725739  T       0.12581824      -0.12711424      -0.50403497      -7.97770185       0.00000000       0.00000000       0.00000000
C       23.72208365      15.00000000      26.61725739  T       0.42240151      -0.00359080      -0.36395117      -7.97770185       0.00000000       0.00000000       0.00000000
C       26.21410755      15.00000000      26.61725739  F       0.00000000       0.00000000       0.00000000      -6.15494457      -2.94629247       0.00000000       5.10372143
C       16.24601195      15.00000000      28.05602806  T      -0.35909803       0.76294318      -0.65892053      -8.25652741      -2.94680618       0.00000000      -2.63708103
C       18.73803585      15.00000000      28.05602806  T      -0.38785118      -0.18564764       0.08758094      -7.97770185       0.00000000       0.00000000       0.00000000
C       21.23005975      15.00000000      28.05602806  T       0.33169535       0.67909392      -0.15286665      -7.97770185       0.00000000       0.00000000       0.00000000
C       23.72208365      15.00000000      28.05602806  T      -0.28050360       0.07651253      -0.44083119      -7.97770185       0.00000000       0.00000000       0.00000000
C       26.21410755      15.00000000      28.05602806  F       0.00000000       0.00000000       0.00000000      -6.15494457      -2.94629247       0.00000000      -5.10372143
C       15.00000000      15.00000000      28.77541340  F       0.00000000       0.00000000       0.00000000      -6.15494457       2.94629247       0.00000000       5.10372143
C       17.49202390      15.00000000      28.77541340  T       0.31924569       0.93513466       0.14822762      -7.97770185       0.00000000       0.00000000      -0.00000000
C       19.98404780      15.00000000      28.77541340  T      -0.21268449      -0.07188416       0.42252504      -7.97770185       0.00000000       0.00000000      -0.00000000
C       22.47607170      15.00000000      28.77541340  T      -1.19356123       0.18270311      -0.08938858      -7.97770185       0.00000000       0.00000000      -0.00000000
C       24.96809560      15.00000000      28.77541340  T      -0.47557256       0.29952042       0.83461387      -8.25652741       2.94680618       0.00000000       2.63708103
C       15.00000000      15.00000000      30.21418407  F       0.00000000       0.00000000       0.00000000      -6.15494457       2.94629247       0.00000000      -5.10372143
C       17.49202390      15.00000000      30.21418407  T      -0.00085705       0.29897999      -0.56021176      -7.97770185       0.00000000       0.00000000      -0.00000000
C       19.98404780      15.00000000      30.21418407  T      -0.12902652      -0.15217625       0.34513708      -7.97770185       0.00000000       0.00000000      -0.00000000
C       22.47607170      15.00000000      30.21418407  T      -0.75182002      -0.05828163       0.70418857      -7.97770185       0.00000000       0.00000000      -0.00000000
C       24.96809560      15.00000000      30.21418407  T      -0.71237626      -0.09113214      -0.84156179      -8.25652741       2.94680618       0.00000000      -2.63708103
C       16.24601195      15.00000000      30.93356940  T      -0.45769413      -0.25315372      -0.28797040      -8.25652741      -2.94680618       0.00000000       2.63708103
C       18.73803585      15.00000000      30.93356940  T      -0.07434641      -0.21201113       0.57127418      -7.97770185       0.00000000       0.00000000       0.00000000
C       21.23005975      15.00000000      30.93356940  T       0.94180430      -0.54433312       0.58795959      -7.97770185       0.00000000       0.00000000       0.00000000
C       23.72208365      15.00000000      30.93356940  T      -0.22217132       1.03273167      -0.41047003      -7.97770185       0.00000000       0.00000000       0.00000000
C       26.21410755      15.00000000      30.93356940  F       0.00000000       0.00000000       0.00000000      -6.15494457      -2.94629247       0.00000000       5.10372143
C       16.24601195      15.00000000      32.37234007  T      -0.63264120      -0.20099088      -0.40076048      -8.25652741      -2.94680618       0.00000000      -2.63708103
C       18.73803585      15.00000000      32.37234007  T       1.08674261      -0.24895217       0.11591943      -7.97770185       0.00000000       0.00000000      -0.00000000
C       21.23005975      15.00000000      32.37234007  T       0.39433327      -0.06386487       0.97162722      -7.97770185       0.00000000       0.00000000      -0.00000000
C       23.72208365      15.00000000      32.37234007  T       0.39515491       0.23919618       0.25734678      -7.97770185       0.00000000       0.00000000      -0.00000000
C       26.21410755      15.00000000      32.37234007  F       0.00000000       0.00000000       0.00000000      -6.15494457      -2.94629247       0.00000000      -5.10372143
C       15.00000000      15.00000000      33.09172541  F       0.00000000       0.00000000       0.00000000      -6.15494457       2.94629247       0.00000000       5.10372143
C       17.49202390      15.00000000      33.09172541  T       0.23632027      -0.20815562      -0.10490283      -7.97770185       0.00000000       0.00000000       0.00000000
C       19.98404780      15.00000000      33.09172541  T      -0.24197797       0.22170343      -0.10091082      -7.97770185       0.00000000       0.00000000       0.00000000
C       22.47607170      15.00000000      33.09172541  T       0.42916388      -0.34108856       0.05057504      -7.97770185       0.00000000       0.00000000       0.00000000
C       24.96809560      15.00000000      33.09172541  T       0.22773142      -0.98940073       0.91205810      -8.25652741       2.94680618       0.00000000       2.63708103
C       15.00000000      15.00000000      34.53049608  F       0.00000000       0.00000000       0.00000000      -6.15494457       2.94629247       0.00000000      -5.10372143
C       17.49202390      15.00000000      34.53049608  T       0.31015486       0.01892571       0.94699657      -7.97770185       0.00000000       0.00000000      -0.00000000
C       19.98404780      15.00000000      34.53049608  T      -0.10121604       0.65816208       0.43616490      -7.97770185       0.00000000       0.00000000      -0.00000000
C       22.47607170      15.00000000      34.53049608  T      -0.29696976      -0.87209458      -0.07243912      -7.97770185       0.00000000       0.00000000      -0.00000000
C       24.96809560      15.00000000      34.53049608  T       0.13498164      -0.58242123       0.11647072      -8.25652741       2.94680618       0.00000000      -2.63708103
C       16.24601195      15.00000000      35.24988141  T       0.41890497      -0.07828775      -0.00921500      -8.25652741      -2.94680618       0.00000000       2.63708103
C       18.73803585      15.00000000      35.24988141  T       0.78532871      -0.73458209      -0.33555051      -7.97770185       0.00000000       0.00000000       0.00000000
C       21.23005975      15.00000000      35.24988141  T      -0.31809526      -1.18558704       0.27288066      -7.97770185       0.00000000       0.00000000       0.00000000