200
Lattice="41.214107553959614 0.0 0.0 0.0 30.0 0.0 0.0 0.0 43.1631201" Properties=species:S:1:pos:R:3:move_mask:L:1:momenta:R:3:energies:R:1:forces:R:3 energy=-1533.7831020173671 free_energy=-1533.7831020173671 stress="0.0027498750309647066 0.0 -6.8192905294492765e-18 0.0 0.0 0.0 -6.8192905294492765e-18 0.0 -9.405873615558545e-05" pbc="T T T"
C       15.00000000      15.00000000       0.00000000  F       0.00000000       0.00000000       0.00000000      -6.15494457       2.94629247       0.00000000      -5.10372143
C       17.49202390      15.00000000       0.00000000  F       0.00000000       0.00000000       0.00000000      -7.97770185       0.00000000       0.00000000      -0.00000000
C       19.98404780      15.00000000       0.00000000  F       0.00000000       0.00000000       0.00000000      -7.97770185       0.00000000       0.00000000      -0.00000000
C       22.47607170      15.00000000       0.00000000  F       0.00000000       0.00000000       0.00000000      -7.97770185       0.00000000       0.00000000      -0.00000000
C       24.96809560      15.00000000       0.00000000  F       0.00000000       0.00000000       0.00000000      -8.25652741       2.94680618       0.00000000      -2.63708103
C       16.24601195      15.00000000       0.71938534  F       0.00000000       0.00000000       0.00000000      -8.25652741      -2.94680618       0.00000000       2.63708103
C       18.73803585      15.00000000       0.71938534  F       0.00000000       0.00000000       0.00000000      -7.97770185       0.00000000       0.00000000      -0.00000000
C       21.23005975      15.00000000       0.71938534  F       0.00000000       0.00000000       0.00000000      -7.97770185       0.00000000       0.00000000      -0.00000000
C       23.72208365      15.00000000       0.71938534  F       0.00000000       0.00000000       0.00000000      -7.97770185       0.00000000       0.00000000      -0.00000000
C       26.21410755      15.00000000       0.71938534  F       0.00000000       0.00000000       0.00000000      -6.15494457      -2.94629247       0.00000000       5.10372143
C       16.24601195      15.00000000       2.15815600  F       0.00000000       0.00000000       0.00000000      -8.25652741      -2.94680618       0.00000000      -2.63708103
C       18.73803585      15.00000000       2.15815600  F       0.00000000       0.00000000       0.00000000      -7.97770185       0.00000000       0.00000000       0.00000000
C       21.23005975      15.00000000       2.15815600  F       0.00000000       0.00000000       0.00000000      -7.97770185       0.00000000       0.00000000       0.00000000
C       23.72208365      15.00000000       2.15815600  F       0.00000000       0.00000000       0.00000000      -7.97770185       0.00000000       0.00000000       0.00000000
C       26.21410755      15.00000000       2.15815600  F       0.00000000       0.00000000       0.00000000      -6.15494457      -2.94629247       0.00000000      -5.10372143
C       15.00000000      15.00000000       2.87754134  F       0.00000000       0.00000000       0.00000000      -6.15494457       2.94629247       0.00000000       5.10372143
C       17.49202390      15.00000000       2.87754134  F       0.00000000       0.00000000       0.00000000      -7.97770185       0.00000000       0.00000000      -0.00000000
C       19.98404780      15.00000000       2.87754134  F       0.00000000       0.00000000       0.00000000      -7.97770185       0.00000000       0.00000000      -0.00000000
C       22.47607170      15.00000000       2.87754134  F       0.00000000       0.00000000       0.00000000      -7.97770185       0.00000000       0.00000000      -0.00000000
C       24.96809560      15.00000000       2.87754134  F       0.00000000       0.00000000       0.00000000      -8.25652741       2.94680618       0.00000000       2.63708103
C       15.00000000      15.00000000       4.31631201  F       0.00000000       0.00000000       0.00000000      -6.15494457       2.94629247       0.00000000      -5.10372143
C       17.49202390      15.00000000       4.31631201  F       0.00000000       0.00000000       0.00000000      -7.97770185       0.00000000       0.00000000       0.00000000
C       19.98404780      15.00000000       4.31631201  F       0.00000000       0.00000000       0.00000000      -7.97770185       0.00000000       0.00000000       0.00000000
C       22.47607170      15.00000000       4.31631201  F       0.00000000       0.00000000       0.00000000      -7.97770185       0.00000000       0.00000000       0.00000000
C       24.96809560      15.00000000       4.31631201  F       0.00000000       0.00000000       0.00000000      -8.25652741       2.94680618       0.00000000      -2.63708103
C       16.24601195      15.00000000       5.03569734  F       0.00000000       0.00000000       0.00000000      -8.25652741      -2.94680618       0.00000000       2.63708103
C       18.73803585      15.00000000       5.03569734  F       0.00000000       0.00000000       0.00000000      -7.97770185       0.00000000       0.00000000      -0.00000000
C       21.23005975      15.00000000       5.03569734  F       0.00000000       0.00000000       0.00000000      -7.97770185       0.00000000       0.00000000      -0.00000000
C       23.72208365      15.00000000       5.03569734  F       0.00000000       0.00000000       0.00000000      -7.97770185       0.00000000       0.00000000      -0.00000000
C       26.21410755      15.00000000       5.03569734  F       0.00000000       0.00000000       0.00000000      -6.15494457      -2.94629247       0.00000000       5.10372143
C       16.24601195      15.00000000       6.47446801  F       0.00000000       0.00000000       0.00000000      -8.25652741      -2.94680618       0.00000000      -2.63708103
C       18.73803585      15.00000000       6.47446801  F       0.00000000       0.00000000       0.00000000      -7.97770185       0.00000000       0.00000000       0.00000000
C       21.23005975      15.00000000       6.47446801  F       0.00000000       0.00000000       0.00000000      -7.97770185       0.00000000       0.00000000       0.00000000
C       23.72208365      15.00000000       6.47446801  F       0.00000000       0.00000000       0.00000000      -7.97770185       0.00000000       0.00000000       0.00000000
C       26.21410755      15.00000000       6.47446801  F       0.00000000       0.00000000       0.00000000      -6.15494457      -2.94629247       0.00000000      -5.10372143
C       15.00000000      15.00000000       7.19385335  F       0.00000000       0.00000000       0.00000000      -6.15494457       2.94629247       0.00000000       5.10372143
C       17.49202390      15.00000000       7.19385335  F       0.00000000       0.00000000       0.00000000      -7.97770185       0.00000000       0.00000000       0.00000000
C       19.98404780      15.00000000       7.19385335  F       0.00000000       0.00000000       0.00000000      -7.97770185       0.00000000       0.00000000       0.00000000
C       22.47607170      15.00000000       7.19385335  F       0.00000000       0.00000000       0.00000000      -7.97770185       0.00000000       0.00000000       0.00000000
C       24.96809560      15.00000000       7.19385335  F       0.00000000       0.00000000       0.00000000      -8.25652741       2.94680618       0.00000000       2.63708103
C       15.00000000      15.00000000       8.63262402  F       0.00000000       0.00000000       0.00000000      -6.15494457       2.94629247       0.00000000      -5.10372143
C       17.49202390      15.00000000       8.63262402  T       0.25691372       0.46233305      -0.02984208      -7.97770185       0.00000000       0.00000000      -0.00000000
C       19.98404780      15.00000000       8.63262402  T       0.15244109       0.40682271      -0.05190106      -7.97770185       0.00000000       0.00000000      -0.00000000
C       22.47607170      15.00000000       8.63262402  T      -0.28603229       0.14498308      -0.13525141      -7.97770185       0.00000000       0.00000000      -0.00000000
C       24.96809560      15.00000000       8.63262402  T       0.08958008       0.24335123       0.03656334      -8.25652741       2.94680618       0.00000000      -2.63708103
C       16.24601195      15.00000000       9.35200935  T      -0.25243534       0.18447843       0.88042574      -8.25652741      -2.94680618       0.00000000       2.63708103
C       18.73803585      15.00000000       9.35200935  T      -0.63185779       0.72355240       0.30471216      -7.97770185       0.00000000       0.00000000       0.00000000
C       21.23005975      15.00000000       9.35200935  T      -0.33228904      -0.65213254       0.04459384      -7.97770185       0.00000000       0.00000000       0.00000000
C       23.72208365      15.00000000       9.35200935  T       0.05147757      -0.02824157      -0.61582561      -7.97770185       0.00000000       0.00000000       0.00000000
C       26.21410755      15.00000000       9.35200935  F       0.00000000       0.00000000       0.00000000      -6.15494457      -2.94629247       0.00000000       5.10372143
C       16.24601195      15.00000000      10.79078003  T       0.34992469      -0.18835013      -0.01559240      -8.25652741      -2.94680618       0.00000000      -2.63708103
C       18.73803585      15.00000000      10.79078003  T      -0.41147345       0.39627761       0.21127802      -7.97770185       0.00000000       0.00000000      -0.00000000
C       21.23005975      15.00000000      10.79078003  T      -0.10523386      -0.36537732       0.87654235      -7.97770185       0.00000000       0.00000000      -0.00000000
C       23.72208365      15.00000000      10.79078003  T      -0.11835804       0.25728489       1.05692203      -7.97770185       0.00000000       0.00000000      -0.00000000
C       26.21410755      15.00000000      10.79078003  F       0.00000000       0.00000000       0.00000000      -6.15494457      -2.94629247       0.00000000      -5.10372143
C       15.00000000      15.00000000      11.51016536  F       0.00000000       0.00000000       0.00000000      -6.15494457       2.94629247       0.00000000       5.10372143
C       17.49202390      15.00000000      11.51016536  T      -0.04602528      -0.12466383       0.40884086      -7.97770185       0.00000000       0.00000000      -0.00000000
C       19.98404780      15.00000000      11.51016536  T      -0.32138707      -0.21350976      -0.70891009      -7.97770185       0.00000000       0.00000000      -0.00000000
C       22.47607170      15.00000000      11.51016536  T       0.41928084      -1.55382220      -0.55331061      -7.97770185       0.00000000       0.00000000      -0.00000000
C       24.96809560      15.00000000      11.51016536  T      -0.59963281       0.34617560       0.47795655      -8.25652741       2.94680618       0.00000000       2.63708103
C       15.00000000      15.00000000      12.94893603  F       0.00000000       0.00000000       0.00000000      -6.15494457       2.94629247       0.00000000      -5.10372143
C       17.49202390      15.00000000      12.94893603  T       0.35424091       0.05789509      -0.11989207      -7.97770185       0.00000000       0.00000000       0.00000000
C       19.98404780      15.00000000      12.94893603  T      -0.03142870      -1.05057617      -0.03377709      -7.97770185       0.00000000       0.00000000       0.00000000
C       22.47607170      15.00000000      12.94893603  T      -0.36434651      -0.42064301       0.27067532      -7.97770185       0.00000000       0.00000000       0.00000000
C       24.96809560      15.00000000      12.94893603  T       0.36390872      -0.22570909      -0.21794589      -8.25652741       2.94680618       0.00000000      -2.63708103
C       16.24601195      15.00000000      13.66832136  T      -0.17834952       0.42213022       0.31447474      -8.25652741      -2.94680618       0.00000000       2.63708103
C       18.73803585      15.00000000      13.66832136  T       0.29704763      -0.17156008       0.24792039      -7.97770185       0.00000000       0.00000000       0.00000000
C       21.23005975      15.00000000      13.66832136  T       1.05268285       0.36449381      -0.19720482      -7.97770185       0.00000000       0.00000000       0.00000000
C       23.72208365      15.00000000      13.66832136  T      -0.16288403      -1.03147852      -0.29994273      -7.97770185       0.00000000       0.00000000       0.00000000
C       26.21410755      15.00000000      13.66832136  F       0.00000000       0.00000000       0.00000000      -6.15494457      -2.94629247       0.00000000       5.10372143
C       16.24601195      15.00000000      15.10709203  T       1.12695136       0.85777784       0.47842902      -8.25652741      -2.94680618       0.00000000      -2.63708103
C       18.73803585      15.00000000      15.10709203  T       0.64106051      -0.19170564       0.37682118      -7.97770185       0.00000000       0.00000000      -0.00000000
C       21.23005975      15.00000000      15.10709203  T      -0.31425367      -0.89206868      -0.32910528      -7.97770185       0.00000000       0.00000000      -0.00000000
C       23.72208365      15.00000000      15.10709203  T      -0.81668430       0.42133829       0.06474091      -7.97770185       0.00000000       0.00000000      -0.00000000
C       26.21410755      15.00000000      15.10709203  F       0.00000000       0.00000000       0.00000000      -6.15494457      -2.94629247       0.00000000      -5.10372143
C       15.00000000      15.00000000      15.82647737  F       0.00000000       0.00000000       0.00000000      -6.15494457       2.94629247       0.00000000       5.10372143
C       17.49202390      15.00000000      15.82647737  T      -0.30367070       0.84489297       0.98634246      -7.97770185       0.00000000       0.00000000       0.00000000
C       19.98404780      15.00000000      15.82647737  T      -0.73931185      -0.10632280       0.04300572      -7.97770185       0.00000000       0.00000000       0.00000000
C       22.47607170      15.00000000      15.82647737  T      -0.35494729       0.46756530      -0.85918113      -7.97770185       0.00000000       0.00000000       0.00000000
C       24.96809560      15.00000000      15.82647737  T      -0.28032180      -0.39028329       1.11630280      -8.25652741       2.94680618       0.00000000       2.63708103
C       15.00000000      15.00000000      17.26524804  F       0.00000000       0.00000000       0.00000000      -6.15494457       2.94629247       0.00000000      -5.10372143
C       17.49202390      15.00000000      17.26524804  T       0.44477372       1.07942001      -0.29158325      -7.97770185       0.00000000       0.00000000      -0.00000000
C       19.98404780      15.00000000      17.26524804  T      -0.18190962      -0.07397045      -0.51190811      -7.97770185       0.00000000       0.00000000      -0.00000000
C       22.47607170      15.00000000      17.26524804  T       0.56918668       1.06836811      -0.59071783      -7.97770185       0.00000000       0.00000000      -0.00000000
C       24.96809560      15.00000000      17.26524804  T      -1.29623165      -0.25720369      -0.50157213      -8.25652741       2.94680618       0.00000000      -2.63708103
C       16.24601195      15.00000000      17.98463337  T      -0.77839498       0.43380775      -0.49129660      -8.25652741      -2.94680618       0.00000000       2.63708103
C       18.73803585      15.00000000      17.98463337  T       0.92701601       0.43727803       1.31994613      -7.97770185       0.00000000       0.00000000       0.00000000
C       21.23005975      15.00000000      17.98463337  T       0.58017735      -0.14325878      -0.24167368      -7.97770185       0.00000000       0.00000000       0.00000000
C       23.72208365      15.00000000      17.98463337  T      -0.77149604       0.31751618      -0.17402013      -7.97770185       0.00000000       0.00000000       0.00000000
C       26.21410755      15.00000000      17.98463337  F       0.00000000       0.00000000       0.00000000      -6.15494457      -2.94629247       0.00000000       5.10372143
C       16.24601195      15.00000000      19.42340404  T      -1.60243165      -0.23773515       0.38305790      -8.25652741      -2.94680618       0.00000000      -2.63708103
C       18.73803585      15.00000000      19.42340404  T      -0.15022597       0.31543216       0.29116815      -7.97770185       0.00000000       0.00000000       0.00000000
C       21.23005975      15.00000000      19.42340404  T       0.25879320      -0.14575833      -0.16561674      -7.97770185       0.00000000       0.00000000       0.00000000
C       23.72208365      15.00000000      19.42340404  T       0.07353116      -0.41431692       0.30937521      -7.97770185       0.00000000       0.00000000       0.00000000
C       26.21410755      15.00000000      19.42340404  F       0.00000000       0.00000000       0.00000000      -6.15494457      -2.94629247       0.00000000      -5.10372143
C       15.00000000      15.00000000      20.14278938  F       0.00000000       0.00000000       0.00000000      -6.15494457       2.94629247       0.00000000       5.10372143
C       17.49202390      15.00000000      20.14278938  T      -1.25578374       0.26532353      -0.20269887      -7.97770185       0.00000000       0.00000000      -0.00000000
C       19.98404780      15.00000000      20.14278938  T      -0.69398075      -0.17872966       0.03680368      -7.97770185       0.00000000       0.00000000      -0.00000000
C       22.47607170      15.00000000      20.14278938  T      -0.29376511       0.34616320      -0.40639338      -7.97770185       0.00000000       0.00000000      -0.00000000
C       24.96809560      15.00000000      20.14278938  T       0.62227393      -0.09639369       0.08460527      -8.25652741       2.94680618       0.00000000       2.63708103
C       15.00000000      15.00000000      21.58156005  F       0.00000000       0.00000000       0.00000000      -6.15494457       2.94629247       0.00000000      -5.10372143
C       17.49202390      15.00000000      21.58156005  T      -0.08440341       0.16731219       0.49423286      -7.97770185       0.00000000       0.00000000      -0.00000000
C       19.98404780      15.00000000      21.58156005  T       0.21736217       0.89162298      -0.11297799      -7.97770185       0.00000000       0.00000000      -0.00000000
C       22.47607170      15.00000000      21.58156005  T      -0.29211698      -0.11872517       0.81519013      -7.97770185       0.00000000       0.00000000      -0.00000000
C       24.96809560      15.00000000      21.58156005  T       0.12576706       1.22916733      -0.72217924      -8.25652741       2.94680618       0.00000000      -2.63708103
C       16.24601195      15.00000000      22.30094538  T       0.35335407       0.14527194      -0.32550944      -8.25652741      -2.94680618       0.00000000       2.63708103
C       18.73803585      15.00000000      22.30094538  T       0.22265670       0.09014304      -0.43917048      -7.97770185       0.00000000       0.00000000       0.00000000
C       21.23005975      15.00000000      22.30094538  T      -1.08357563      -0.19561467      -0.25052964      -7.97770185       0.00000000       0.00000000       0.00000000
C       23.72208365      15.00000000      22.30094538  T       0.45077636       0.19927208      -0.78199275      -7.97770185       0.00000000       0.00000000       0.00000000
C       26.21410755      15.00000000      22.30094538  F       0.00000000       0.00000000       0.00000000      -6.15494457      -2.94629247       0.00000000       5.10372143
C       16.24601195      15.00000000      23.73971605  T      -0.04421158       0.88710378       0.11575201      -8.25652741      -2.94680618       0.00000000      -2.63708103
C       18.73803585      15.00000000      23.73971605  T       0.55272991      -0.25810517      -0.15891826      -7.97770185       0.00000000       0.00000000      -0.00000000
C       21.23005975      15.00000000      23.73971605  T      -0.26797532      -0.12274353       0.22355995      -7.97770185       0.00000000       0.00000000      -0.00000000
C       23.72208365      15.00000000      23.73971605  T       0.29366033       0.38890145       0.03743260      -7.97770185       0.00000000       0.00000000      -0.00000000
C       26.21410755      15.00000000      23.73971605  F       0.00000000       0.00000000       0.00000000      -6.15494457      -2.94629247       0.00000000      -5.10372143
C       15.00000000      15.00000000      24.45910139  F       0.00000000       0.00000000       0.00000000      -6.15494457       2.94629247       0.00000000       5.10372143
C       17.49202390      15.00000000      24.45910139  T       0.11759595       0.09100667       0.11550988      -7.97770185       0.00000000       0.00000000      -0.00000000
C       19.98404780      15.00000000      24.45910139  T      -0.18648146      -0.90441755       0.39482153      -7.97770185       0.00000000       0.00000000      -0.00000000
C       22.47607170      15.00000000      24.45910139  T      -0.25030472       0.30153499       0.17097493      -7.97770185       0.00000000       0.00000000      -0.00000000
C       24.96809560      15.00000000      24.45910139  T      -0.51457462       0.24870407       0.01051976      -8.25652741       2.94680618       0.00000000       2.63708103
C       15.00000000      15.00000000      25.89787206  F       0.00000000       0.00000000       0.00000000      -6.15494457       2.94629247       0.00000000      -5.10372143
C       17.49202390      15.00000000      25.89787206  T      -0.56185979      -1.11563469      -0.72126033      -7.97770185       0.00000000       0.00000000       0.00000000
C       19.98404780      15.00000000      25.89787206  T       0.03878494      -0.51645381      -0.00234369      -7.97770185       0.00000000       0.00000000       0.00000000
C       22.47607170      15.00000000      25.89787206  T      -0.49654049       0.35311493      -0.61187786      -7.97770185       0.00000000       0.00000000       0.00000000
C       24.96809560      15.00000000      25.89787206  T       0.56993229      -0.63262320      -0.75986322      -8.25652741       2.94680618       0.00000000      -2.63708103
C       16.24601195      15.00000000      26.61725739  T      -0.22474164      -0.20150828      -0.00610177      -8.25652741      -2.94680618       0.00000000       2.63708103
C       18.73803585      15.00000000      26.61725739  T       0.34118128      -0.17812579       0.46984556      -7.97770185       0.00000000       0.00000000       0.00000000
C       21.23005975      15.00000000      26.61725739  T       0.09554870      -0.68631590      -0.26861128      -7.97770185       0.00000000       0.00000000       0.00000000
C       23.72208365      15.00000000      26.61725739  T       1.31390720       0.44182536       1.33940984      -7.97770185       0.00000000       0.00000000       0.00000000
C       26.21410755      15.00000000      26.61725739  F       0.00000000       0.00000000       0.00000000      -6.15494457      -2.94629247       0.00000000       5.10372143
C       16.24601195      15.00000000      28.05602806  T      -0.23676337      -0.32377141      -0.02919924      -8.25652741      -2.94680618       0.00000000      -2.63708103
C       18.73803585      15.00000000      28.05602806  T      -0.83429670       0.28982814      -0.21593563      -7.97770185       0.00000000       0.00000000       0.00000000
C       21.23005975      15.00000000      28.05602806  T      -0.32310150      -0.17764892      -0.44997503      -7.97770185       0.00000000       0.00000000       0.00000000
C       23.72208365      15.00000000      28.05602806  T       0.47427975       0.36152183       0.01513655      -7.97770185       0.00000000       0.00000000       0.00000000
C       26.21410755      15.00000000      28.05602806  F       0.00000000       0.00000000       0.00000000      -6.15494457      -2.94629247       0.00000000      -5.10372143
C       15.00000000      15.00000000      28.77541340  F       0.00000000       0.00000000       0.00000000      -6.15494457       2.94629247       0.00000000       5.10372143
C       17.49202390      15.00000000      28.77541340  T      -0.21280959       0.26275402       0.81449117      -7.97770185       0.00000000       0.00000000      -0.00000000
C       19.98404780      15.00000000      28.77541340  T       0.30586569      -0.12718998      -0.31894327      -7.97770185       0.00000000       0.00000000      -0.00000000
C       22.47607170      15.00000000      28.77541340  T      -0.72656816      -0.65231284      -0.45365583      -7.97770185       0.00000000       0.00000000      -0.00000000
C       24.96809560      15.00000000      28.77541340  T       0.88351834      -0.35495742       0.50835453      -8.25652741       2.94680618       0.00000000       2.63708103
C       15.00000000      15.00000000      30.21418407  F       0.00000000       0.00000000       0.00000000      -6.15494457       2.94629247       0.00000000      -5.10372143
C       17.49202390      15.00000000      30.21418407  T      -0.24088055       0.28313188      -0.26646258      -7.97770185       0.00000000       0.00000000      -0.00000000
C       19.98404780      15.00000000      30.21418407  T      -0.27609076       0.87493697       0.50730859      -7.97770185       0.00000000       0.00000000      -0.00000000
C       22.47607170      15.00000000      30.21418407  T      -0.60716516       0.16547614       0.31701941      -7.97770185       0.00000000       0.00000000      -0.00000000
C       24.96809560      15.00000000      30.21418407  T      -1.30292779      -0.05261200       0.28029913      -8.25652741       2.94680618       0.00000000      -2.63708103
C       16.24601195      15.00000000      30.93356940  T       0.55333091      -0.54816047      -0.09064831      -8.25652741      -2.94680618       0.00000000       2.63708103
C       18.73803585      15.00000000      30.93356940  T      -0.33131779      -0.09180652      -0.43957958      -7.97770185       0.00000000       0.00000000       0.00000000
C       21.23005975      15.00000000      30.93356940  T       0.77839806       0.62908939      -0.29685097      -7.97770185       0.00000000       0.00000000       0.00000000
C       23.72208365      15.00000000      30.93356940  T       0.24732647      -0.63476454       0.59327978      -7.97770185       0.00000000       0.00000000       0.00000000
C       26.21410755      15.00000000      30.93356940  F       0.00000000       0.00000000       0.00000000      -6.15494457      -2.94629247       0.00000000       5.10372143
C       16.24601195      15.00000000      32.37234007  T       0.49362803       0.04444921       0.33009434      -8.25652741      -2.94680618       0.00000000      -2.63708103
C       18.73803585      15.00000000      32.37234007  T      -0.41904674      -0.68650000      -0.11527904      -7.97770185       0.00000000       0.00000000      -0.00000000
C       21.23005975      15.00000000      32.37234007  T       0.51965824      -0.63930722       0.16886725      -7.97770185       0.00000000       0.00000000      -0.00000000
C       23.72208365      15.00000000      32.37234007  T       0.87429048      -0.37124209       0.07567228      -7.97770185       0.00000000       0.00000000      -0.00000000
C       26.21410755      15.00000000      32.37234007  F       0.00000000       0.00000000       0.00000000      -6.15494457      -2.94629247       0.00000000      -5.10372143
C       15.00000000      15.00000000      33.09172541  F       0.00000000       0.00000000       0.00000000      -6.15494457       2.94629247       0.00000000       5.10372143
C       17.49202390      15.00000000      33.09172541  T       0.47198230      -0.16727433       0.38774540      -7.97770185       0.00000000       0.00000000       0.00000000
C       19.98404780      15.00000000      33.09172541  T      -0.42610906       0.84278061       0.29664978      -7.97770185       0.00000000       0.00000000       0.00000000
C       22.47607170      15.00000000      33.09172541  T       0.72437351       0.08755398       0.45719645      -7.97770185       0.00000000       0.00000000       0.00000000
C       24.96809560      15.00000000      33.09172541  T      -0.94660986      -0.12602067      -0.95962134      -8.25652741       2.94680618       0.00000000       2.63708103
C       15.00000000      15.00000000      34.53049608  F       0.00000000       0.00000000       0.00000000      -6.15494457       2.94629247       0.00000000      -5.10372143
C       17.49202390      15.00000000      34.53049608  F       0.00000000       0.00000000       0.00000000      -7.97770185       0.00000000       0.00000000      -0.00000000
C       19.98404780      15.00000000      34.53049608  F       0.00000000       0.00000000       0.00000000      -7.97770185       0.00000000       0.00000000      -0.00000000
C       22.47607170      15.00000000      34.53049608  F       0.00000000       0.00000000       0.00000000      -7.97770185       0.00000000       0.00000000      -0.00000000
C       24.96809560      15.00000000      34.53049608  F       0.00000000       0.00000000       0.00000000      -8.25652741       2.94680618       0.00000000      -2.63708103
C       16.24601195      15.00000000      35.24988141  F       0.00000000       0.00000000       0.00000000      -8.25652741      -2.94680618       0.00000000       2.63708103
C       18.73803585      15.00000000      35.24988141  F       0.00000000       0.00000000       0.00000000      -7.97770185       0.00000000       0.00000000       0.00000000
C       21.23005975      15.00000000      35.24988141  F       0.00000000       0.00000000       0.00000000      -7.97770185       0.00000000       0.00000000       0.00000000